VARIABLES = X,Y,phix,phiy
ZONE I=200,J=200,F=POINT 
-0.3008363545 -0.1003156006 -0.00095102057651093 -0.0007406020848635029
-0.2955148816 -0.1003156006 -0.0009568038087821371 -0.0007283103717800227
-0.2901934385 -0.1003156006 -0.0009620005855836015 -0.0007196767213358366
-0.2848719656 -0.1003156006 -0.0009681976109698912 -0.0007104073616534282
-0.2795505226 -0.1003156006 -0.0009718696878190829 -0.0007046233357522973
-0.2742290497 -0.1003156006 -0.0009733014217340417 -0.000706505173059588
-0.2689076066 -0.1003156006 -0.000976960914530343 -0.0007074608961571535
-0.2635861337 -0.1003156006 -0.0009790585433060944 -0.000683970701939708
-0.2582646906 -0.1003156006 -0.0009745845766488179 -0.000655818968096343
-0.2529432178 -0.1003156006 -0.0009664802902741461 -0.0006256779779267509
-0.2476217598 -0.1003156006 -0.0009550831609280917 -0.0005898413423849576
-0.2423003018 -0.1003156006 -0.0009519758484712482 -0.0005588665948367825
-0.2369788438 -0.1003156006 -0.0009558063885239767 -0.0005364400626250476
-0.2316573858 -0.1003156006 -0.00096094881661562 -0.0005125584585908055
-0.2263359278 -0.1003156006 -0.0009709391383101629 -0.0004835990339363648
-0.2210144699 -0.1003156006 -0.0009764441105409515 -0.00045441200536391874
-0.2156930119 -0.1003156006 -0.0009813339083157542 -0.0004245933858200703
-0.2103715539 -0.1003156006 -0.0009868882010629864 -0.00039241397239939927
-0.2050500959 -0.1003156006 -0.001000777359554358 -0.0003487010444967782
-0.1997286379 -0.1003156006 -0.001016171885190679 -0.00030731504844732705
-0.19440718 -0.1003156006 -0.0010257855949505198 -0.00026342939273017176
-0.189085722 -0.1003156006 -0.001061361225791393 -0.00023877779150203673
-0.183764264 -0.1003156006 -0.0011041425852492159 -0.0002160875922948045
-0.178442806 -0.1003156006 -0.001147892569499041 -0.00019111178102803437
-0.173121348 -0.1003156006 -0.0011793357238030708 -0.00017410992377391956
-0.16779989 -0.1003156006 -0.0012086342698687587 -0.00015790192919854342
-0.1624784321 -0.1003156006 -0.0012373582823221152 -0.00014738923450835555
-0.1571569741 -0.1003156006 -0.0012618815010250807 -0.00014244880095624142
-0.1518355161 -0.1003156006 -0.0012844398329723053 -0.0001426680940397098
-0.1465140581 -0.1003156006 -0.001306413868221407 -0.0001431002580888714
-0.1411926001 -0.1003156006 -0.0013271069455203183 -0.00014246299303217002
-0.1358711421 -0.1003156006 -0.0013415787086861286 -0.00014161791727383674
-0.1305496842 -0.1003156006 -0.0013560190016708134 -0.0001407591177235076
-0.1252282262 -0.1003156006 -0.0013715651668602777 -0.00013883758498762353
-0.1199067682 -0.1003156006 -0.0013934300630228831 -0.00012920393744373819
-0.1145853102 -0.1003156006 -0.0014170481802790482 -0.0001184000852464775
-0.1092638522 -0.1003156006 -0.001441405950406182 -0.0001072938463027743
-0.1039423943 -0.1003156006 -0.001465361848581143 -9.593944640891952e-05
-0.09862093627 -0.1003156006 -0.0014860817710764661 -9.37242441623962e-05
-0.09329947084 -0.1003156006 -0.0015062954988263903 -9.246036383164773e-05
-0.08797801286 -0.1003156006 -0.0015265693342777617 -9.118314729528254e-05
-0.08265655488 -0.1003156006 -0.0015467196880638863 -8.994536145130557e-05
-0.0773350969 -0.1003156006 -0.0015574935094202675 -8.890795843656942e-05
-0.07201363891 -0.1003156006 -0.001568209774021882 -8.768915014834152e-05
-0.06669218093 -0.1003156006 -0.001578830382512229 -8.647148026536951e-05
-0.06137072667 -0.1003156006 -0.0015888681600533159 -8.587405426634058e-05
-0.05604926869 -0.1003156006 -0.0015994657812699225 -8.283982493119793e-05
-0.05072781071 -0.1003156006 -0.001610127487984928 -7.945757841551211e-05
-0.045406349 -0.1003156006 -0.001620775861430859 -7.60976036427026e-05
-0.04008489102 -0.1003156006 -0.0016313566713100213 -7.257742395774132e-05
-0.03476343304 -0.1003156006 -0.0016420916323189006 -7.089935563881359e-05
-0.02944197692 -0.1003156006 -0.0016523746399912259 -7.407438331138252e-05
-0.02412051894 -0.1003156006 -0.0016628404212906977 -7.747443282814741e-05
-0.01879905909 -0.1003156006 -0.0016736098160755975 -8.124852104715546e-05
-0.01347760204 -0.1003156006 -0.0016839369270691864 -8.461405217428727e-05
-0.00815614406 -0.1003156006 -0.0016880098104889339 -8.629399919655222e-05
-0.00283468538 -0.1003156006 -0.0016868924358443595 -8.68372766945373e-05
0.002486772602 -0.1003156006 -0.00168458384884661 -8.813497815484717e-05
0.007808230817 -0.1003156006 -0.0016822251899419449 -8.942672565394058e-05
0.0131296888 -0.1003156006 -0.0016808391552405244 -9.010847703719304e-05
0.01845114678 -0.1003156006 -0.0016776144972422205 -8.214969368145756e-05
0.02377260476 -0.1003156006 -0.0016724844769479895 -6.744952280182543e-05
0.02909406275 -0.1003156006 -0.0016666458638161107 -5.214382112993939e-05
0.03441552073 -0.1003156006 -0.0016609080896973576 -3.683728371788406e-05
0.03973697871 -0.1003156006 -0.0016557357422210767 -2.2065661020407312e-05
0.04505843669 -0.1003156006 -0.0016588433188295382 -6.6966571720302796e-06
0.05037989467 -0.1003156006 -0.0016734746374383546 9.322314157394103e-06
0.05570135266 -0.1003156006 -0.0016886496911357293 2.6048085076002496e-05
0.06102281436 -0.1003156006 -0.0017042065701141592 4.2785668333278766e-05
0.06634426862 -0.1003156006 -0.0017190115591114935 5.8995670747491634e-05
0.0716657266 -0.1003156006 -0.0017335103711487345 7.48664744062361e-05
0.07698718458 -0.1003156006 -0.0017461306954299149 7.350201249214126e-05
0.08230864257 -0.1003156006 -0.0017583153111405086 7.059966955973627e-05
0.08763010055 -0.1003156006 -0.0017711807053157453 6.723038245537852e-05
0.09295155853 -0.1003156006 -0.0017833848755463072 6.438108691926784e-05
0.09827301651 -0.1003156006 -0.0017953540617748564 6.182116613844696e-05
0.1035944745 -0.1003156006 -0.0018028258294856304 6.080150329960607e-05
0.1089159325 -0.1003156006 -0.001798910923867696 6.298362034524939e-05
0.1142373979 -0.1003156006 -0.001794701844458641 6.516095618226137e-05
0.1195588559 -0.1003156006 -0.0017914373019124864 6.777596486302458e-05
0.1248803139 -0.1003156006 -0.001788026098465761 7.028562147757629e-05
0.1302017719 -0.1003156006 -0.0017843272251122958 7.260671341187125e-05
0.1355232298 -0.1003156006 -0.001783144433825429 8.285360472506194e-05
0.1408446878 -0.1003156006 -0.0017838296019763089 9.880177508370495e-05
0.1461661458 -0.1003156006 -0.00178461345131144 0.00011386728191618606
0.1514876038 -0.1003156006 -0.0017852899968233552 0.00012894519746768453
0.1568090618 -0.1003156006 -0.0017861181403461205 0.00014401187247223485
0.1621305197 -0.1003156006 -0.0017867712774023799 0.0001591474547676043
0.1674519777 -0.1003156006 -0.0017977433535127747 0.00016426925099206986
0.1727734357 -0.1003156006 -0.0018129679995645708 0.00016504622959611273
0.1780948937 -0.1003156006 -0.001828133650416621 0.0001658275121347163
0.1834163517 -0.1003156006 -0.0018433557813003106 0.0001666013328580182
0.1887378097 -0.1003156006 -0.0018577466488966232 0.00016745229441005835
0.1940592676 -0.1003156006 -0.001870754639939465 0.00016840600936834376
0.1993807256 -0.1003156006 -0.0018727862202296763 0.0001569698944903996
0.2047021836 -0.1003156006 -0.0018711730129297415 0.00014127107405321383
0.2100236416 -0.1003156006 -0.0018693960042700261 0.00012576872397633207
0.2153450996 -0.1003156006 -0.001866650415433903 0.00011254416142462312
0.2206665576 -0.1003156006 -0.0018644957534486356 9.832104902545436e-05
0.2259880155 -0.1003156006 -0.0018622870335551621 8.404933443177109e-05
0.2313094735 -0.1003156006 -0.0018342423124977291 7.59017333323382e-05
0.2366309315 -0.1003156006 -0.001800399594923537 7.146403475930179e-05
0.2419523895 -0.1003156006 -0.0017673729150025745 6.750875926935708e-05
0.2472738475 -0.1003156006 -0.0017343150477740715 6.350215158933848e-05
0.2525953054 -0.1003156006 -0.0017014274288870551 5.9506846643054576e-05
0.2579167783 -0.1003156006 -0.0016698364725856426 5.6636680923798925e-05
0.2632382214 -0.1003156006 -0.0016368039708335629 8.147956698915488e-05
0.2685596943 -0.1003156006 -0.001602827168491772 0.00011370756612273151
0.2738811374 -0.1003156006 -0.0015677207147168875 0.00014681814849726483
0.2792026103 -0.1003156006 -0.0015336282229163204 0.00017915487294992328
0.2845240533 -0.1003156006 -0.0015014565135004789 0.00021007232134118573
0.2898455262 -0.1003156006 -0.0014691594619891063 0.0002409792705836232
0.2951669693 -0.1003156006 -0.0014615284141444307 0.0002784456338069837
0.3004884422 -0.1003156006 -0.0014578461077719936 0.0003165238925527359
0.3058098853 -0.1003156006 -0.0014531601506053756 0.00035294426846203207
0.3111313581 -0.1003156006 -0.0014487155044262277 0.00038936251453094186
0.3164528012 -0.1003156006 -0.0014440211457061906 0.0004257879382996982
0.3217742741 -0.1003156006 -0.0014393546917940982 0.0004619726752375317
0.3270957172 -0.1003156006 -0.0014441613965059015 0.00048111399209754515
0.3324171901 -0.1003156006 -0.0014492537584639001 0.0005002776790248328
0.3377386332 -0.1003156006 -0.0014542950273725606 0.0005194279640052754
0.343060106 -0.1003156006 -0.001459542619886904 0.0005385610352196077
0.3483815491 -0.1003156006 -0.001462835279359885 0.0005578479547895538
0.353703022 -0.1003156006 -0.001464280234197122 0.0005747181617937137
0.3590244651 -0.1003156006 -0.0014601554058418299 0.0005853905775304253
0.364345938 -0.1003156006 -0.0014561662791338567 0.00059609350587927
0.369667381 -0.1003156006 -0.0014510027183620923 0.0006078223806781345
0.3749888539 -0.1003156006 -0.0014458869521947043 0.0006194319908251678
0.380310297 -0.1003156006 -0.0014412618567806262 0.000630703710011237
0.3856317699 -0.1003156006 -0.0014263654960754788 0.0006353554781697678
0.390953213 -0.1003156006 -0.0014075337348912194 0.0006406004566356947
0.3962746859 -0.1003156006 -0.0013885787530637762 0.0006458296153155041
0.4015961289 -0.1003156006 -0.0013702947500976931 0.000650989658143223
0.4069176018 -0.1003156006 -0.0013517114318805266 0.0006562906596469593
0.4122390449 -0.1003156006 -0.0013264576661504394 0.0006669735320268317
0.4175605178 -0.1003156006 -0.0012888871069816265 0.0006819267811094831
0.4228819609 -0.1003156006 -0.0012503554281460606 0.0006959520509123572
0.4282034338 -0.1003156006 -0.001212205873654887 0.0007103110313645162
0.4335248768 -0.1003156006 -0.0011762885620151846 0.0007263511291450278
0.4388463497 -0.1003156006 -0.0011385945961105842 0.0007469488769067741
0.4441677928 -0.1003156006 -0.0010963630054575187 0.0007805445846696809
0.4494892657 -0.1003156006 -0.0010545749975901548 0.0008139770879819376
0.4548107088 -0.1003156006 -0.0010148017293851565 0.0008472734331471559
0.4601321816 -0.1003156006 -0.0009736226694284292 0.0008807822968391241
0.4654536247 -0.1003156006 -0.0009341080186127721 0.0009186950934952615
0.4707750976 -0.1003156006 -0.0008984182937571878 0.0009630315863083688
0.4760965407 -0.1003156006 -0.0008633756014462181 0.0010069002866368794
0.4814180136 -0.1003156006 -0.0008285169975080999 0.0010507984841832965
0.4867394567 -0.1003156006 -0.0007933740740262337 0.00109460121816298
0.4920609295 -0.1003156006 -0.0007619677662310211 0.0011401329239419033
0.4973823726 -0.1003156006 -0.0007321315739298961 0.001186536372184315
0.5027038455 -0.1003156006 -0.0007023245188974083 0.0012329030556135893
0.5080252886 -0.1003156006 -0.0006724173174264662 0.0012791990300891674
0.5133467317 -0.1003156006 -0.0006413706790051784 0.001324420746817295
0.5186682343 -0.1003156006 -0.000609427137827508 0.0013675403434715706
0.5239896774 -0.1003156006 -0.000577830154930594 0.0014107359298325467
0.5293111205 -0.1003156006 -0.0005457982394717944 0.0014541601482011193
0.5346325636 -0.1003156006 -0.0005100547209931754 0.0014987308468286944
0.5399540663 -0.1003156006 -0.00046865394222879225 0.0015418827087024063
0.5452755094 -0.1003156006 -0.00042742899265987464 0.0015844477801922393
0.5505969524 -0.1003156006 -0.00038637297932162895 0.0016283003182253459
0.5559183955 -0.1003156006 -0.0003380785736855057 0.0016774059768878088
0.5612398982 -0.1003156006 -0.0002857165681457493 0.0017255074834415956
0.5665613413 -0.1003156006 -0.00023329898254517874 0.0017739922353330348
0.5718827844 -0.1003156006 -0.0001799549431167097 0.0018274894603783995
0.5772042274 -0.1003156006 -0.00011977847317809514 0.0018840451023418323
0.5825257301 -0.1003156006 -5.918115097641638e-05 0.0019404181629400158
0.5878471732 -0.1003156006 2.7999210526399073e-06 0.0020014975039207537
0.5931686163 -0.1003156006 6.955625147456326e-05 0.0020665320605436706
0.5984900594 -0.1003156006 0.0001366961007788084 0.002130601727380446
0.6038115621 -0.1003156006 0.00020903911540471554 0.002202131545910738
0.6091330051 -0.1003156006 0.00028159612065512186 0.002275840814993151
0.6144544482 -0.1003156006 0.00035846280721612265 0.002352949340218135
0.6197758913 -0.1003156006 0.0004380428569979149 0.0024359789455193595
0.625097394 -0.1003156006 0.0005185312095526325 0.002521548274175353
0.6304188371 -0.1003156006 0.000603304797994728 0.0026133417239780545
0.6357402802 -0.1003156006 0.0006879703122752473 0.0027098267580049303
0.6410617828 -0.1003156006 0.0007767566788081471 0.0028104306442510094
0.6463832259 -0.1003156006 0.0008677545317998318 0.0029157516833786317
0.651704669 -0.1003156006 0.0009604954628326019 0.003024440509370617
0.6570261121 -0.1003156006 0.0010548860537689692 0.003142385572002346
0.6623476148 -0.1003156006 0.0011508048747069528 0.0032648602099655754
0.6676690578 -0.1003156006 0.001249725697347092 0.0033929007542244276
0.6729905009 -0.1003156006 0.0013510902911903525 0.003529915739281722
0.678311944 -0.1003156006 0.001452414258486885 0.0036732100860635553
0.6836334467 -0.1003156006 0.0015558686172529412 0.0038229088936587744
0.6889548898 -0.1003156006 0.0016620365946855324 0.003980871504722664
0.6942763329 -0.1003156006 0.0017681899907805484 0.00414642286670647
0.6995977759 -0.1003156006 0.0018755929653006495 0.004319317458635871
0.7049192786 -0.1003156006 0.001984394194171217 0.004501205020920073
0.7102407217 -0.1003156006 0.0020936367350794494 0.0046899509051531235
0.7155621648 -0.1003156006 0.002204177321577377 0.0048911918593168196
0.7208836079 -0.1003156006 0.0023140994044428226 0.005101235641538034
0.7262051105 -0.1003156006 0.002423638779352102 0.005319864975378419
0.7315265536 -0.1003156006 0.002535207677334813 0.005550922077796755
0.7368479967 -0.1003156006 0.0026448009601041976 0.0057956211742920104
0.7421694398 -0.1003156006 0.0027564597465863138 0.006051341756344109
0.7474909425 -0.1003156006 0.0028601297291959535 0.00631646744142175
0.7528123856 -0.1003156006 0.002966219414719547 0.0065969000043413
0.7581338286 -0.1003156006 0.003069289473942206 0.006892084706121953
-0.3008363545 -0.09699654579 -0.0009557289547278915 -0.0007313307493846146
-0.2955148816 -0.09699654579 -0.0009644734943002712 -0.0007201984705799301
-0.2901934385 -0.09699654579 -0.0009719645770258807 -0.000709123593118627
-0.2848719656 -0.09699654579 -0.00097697204547685 -0.0007010583007356008
-0.2795505226 -0.09699654579 -0.0009837871438524441 -0.0006961158636766077
-0.2742290497 -0.09699654579 -0.0009887141153295026 -0.0006950949546853646
-0.2689076066 -0.09699654579 -0.0009923610709928715 -0.0006977327956968803
-0.2635861337 -0.09699654579 -0.0009901886192481425 -0.0006940094652309446
-0.2582646906 -0.09699654579 -0.000990570638562456 -0.000669261136371368
-0.2529432178 -0.09699654579 -0.0009799730704410142 -0.0006372614507307134
-0.2476217598 -0.09699654579 -0.0009667282113854461 -0.0005962476695877826
-0.2423003018 -0.09699654579 -0.000951316529555913 -0.0005558795253650981
-0.2369788438 -0.09699654579 -0.0009512066986054865 -0.0005347351070368416
-0.2316573858 -0.09699654579 -0.0009606115474113157 -0.0005088072870565459
-0.2263359278 -0.09699654579 -0.0009691884154015676 -0.0004797539865633354
-0.2210144699 -0.09699654579 -0.0009734158742067992 -0.00044876749974999733
-0.2156930119 -0.09699654579 -0.0009790991570283502 -0.00041571455954291653
-0.2103715539 -0.09699654579 -0.0009899975248837609 -0.0003833439186235798
-0.2050500959 -0.09699654579 -0.0010047933940297827 -0.00034128967707522997
-0.1997286379 -0.09699654579 -0.0010141400852557417 -0.00029726302229605284
-0.19440718 -0.09699654579 -0.001020876143614417 -0.0002491213600084492
-0.189085722 -0.09699654579 -0.0010549540508476213 -0.00021318548182137703
-0.183764264 -0.09699654579 -0.0011012707709081022 -0.00018737932103113746
-0.178442806 -0.09699654579 -0.0011486019052038019 -0.00016559537878668183
-0.173121348 -0.09699654579 -0.0011829539010633492 -0.00014935140336104223
-0.16779989 -0.09699654579 -0.0012110639167996456 -0.00014133758109497827
-0.1624784321 -0.09699654579 -0.0012384227555729576 -0.00013594875071461815
-0.1571569741 -0.09699654579 -0.0012600574256924958 -0.0001331936817125206
-0.1518355161 -0.09699654579 -0.0012814406158244073 -0.0001342310021812114
-0.1465140581 -0.09699654579 -0.0013032650552188675 -0.00013505507486279424
-0.1411926001 -0.09699654579 -0.0013229015422872494 -0.00013467551380734274
-0.1358711421 -0.09699654579 -0.0013385747698667308 -0.00013252166537355627
-0.1305496842 -0.09699654579 -0.001354221914163745 -0.00012949180065768295
-0.1252282262 -0.09699654579 -0.0013705379234213333 -0.00012599172219957382
-0.1199067682 -0.09699654579 -0.001393955875634365 -0.00011537868112065588
-0.1145853102 -0.09699654579 -0.001418731187288603 -0.00010365054731596195
-0.1092638522 -0.09699654579 -0.0014439488990627435 -9.200082011187312e-05
-0.1039423943 -0.09699654579 -0.0014699971071693027 -8.001262098753763e-05
-0.09862093627 -0.09699654579 -0.0014905709509348026 -7.916558944410574e-05
-0.09329947084 -0.09699654579 -0.0015109570013066734 -7.898496501439726e-05
-0.08797801286 -0.09699654579 -0.0015313183438395886 -7.944074239757961e-05
-0.08265655488 -0.09699654579 -0.0015514064337873985 -7.902167207138043e-05
-0.0773350969 -0.09699654579 -0.0015615002609792232 -7.863238047758209e-05
-0.07201363891 -0.09699654579 -0.001570769173732431 -7.846678703335517e-05
-0.06669218093 -0.09699654579 -0.0015804994720353266 -7.831918684794973e-05
-0.06137072667 -0.09699654579 -0.001591002975860419 -7.84413555507465e-05
-0.05604926869 -0.09699654579 -0.0016025813292179537 -7.546532514545095e-05
-0.05072781071 -0.09699654579 -0.001614067447976057 -7.185658769715589e-05
-0.045406349 -0.09699654579 -0.0016256153564260915 -6.824687373533301e-05
-0.04008489102 -0.09699654579 -0.001637469290829012 -6.44977957506006e-05
-0.03476343304 -0.09699654579 -0.0016498861393902493 -6.303708829121348e-05
-0.02944197692 -0.09699654579 -0.0016616418152615212 -6.790216435577095e-05
-0.02412051894 -0.09699654579 -0.0016735265848445101 -7.257517676040121e-05
-0.01879905909 -0.09699654579 -0.0016854231738107166 -7.742370922034591e-05
-0.01347760204 -0.09699654579 -0.0016974221263448526 -8.265327045286962e-05
-0.00815614406 -0.09699654579 -0.0017013011270973918 -8.589998822127224e-05
-0.00283468538 -0.09699654579 -0.0016982243757577157 -8.778520266123147e-05
0.002486772602 -0.09699654579 -0.001694705276945764 -8.991420640791654e-05
0.007808230817 -0.09699654579 -0.001691196997119864 -9.217851235453034e-05
0.0131296888 -0.09699654579 -0.0016879470410895376 -9.41808255194208e-05
0.01845114678 -0.09699654579 -0.0016827689178360687 -8.572285085359041e-05
0.02377260476 -0.09699654579 -0.0016758290273939194 -6.955720805469057e-05
0.02909406275 -0.09699654579 -0.0016682519871422784 -5.280227211883313e-05
0.03441552073 -0.09699654579 -0.001660367429484843 -3.596284732360968e-05
0.03973697871 -0.09699654579 -0.0016533994834814895 -1.9730690326593824e-05
0.04505843669 -0.09699654579 -0.0016560860991721785 -2.6837064639709273e-06
0.05037989467 -0.09699654579 -0.0016722484319303624 1.496323924856879e-05
0.05570135266 -0.09699654579 -0.0016887432609772168 3.284074254891898e-05
0.06102281436 -0.09699654579 -0.0017056852786804704 5.1066593403330605e-05
0.06634426862 -0.09699654579 -0.0017218846256020963 6.855135087678302e-05
0.0716657266 -0.09699654579 -0.001738072630428585 8.603420883184926e-05
0.07698718458 -0.09699654579 -0.0017517083910231067 8.239969307802208e-05
0.08230864257 -0.09699654579 -0.0017651479063937696 7.733970542766557e-05
0.08763010055 -0.09699654579 -0.0017783854794265277 7.275369166198376e-05
0.09295155853 -0.09699654579 -0.0017914350815022985 6.83346609381744e-05
0.09827301651 -0.09699654579 -0.0018045617052684614 6.368654724282892e-05
0.1035944745 -0.09699654579 -0.0018117083607284284 6.119172808431619e-05
0.1089159325 -0.09699654579 -0.0018049847288264436 6.281662226660679e-05
0.1142373979 -0.09699654579 -0.0017992432789171705 6.476388260608893e-05
0.1195588559 -0.09699654579 -0.0017940955458503668 6.682437956316384e-05
0.1248803139 -0.09699654579 -0.0017887439422757175 6.889162882153659e-05
0.1302017719 -0.09699654579 -0.0017832101884344602 7.08965646707696e-05
0.1355232298 -0.09699654579 -0.0017806666540038734 8.265338671878152e-05
0.1408446878 -0.09699654579 -0.0017806679385198052 9.988860783345534e-05
0.1461661458 -0.09699654579 -0.0017809591037259663 0.00011707616837378597
0.1514876038 -0.09699654579 -0.0017816889324299447 0.0001342061166520624
0.1568090618 -0.09699654579 -0.0017823904204903342 0.00015134407002897565
0.1621305197 -0.09699654579 -0.0017831896804535504 0.00016769461787873385
0.1674519777 -0.09699654579 -0.0017959329154553256 0.0001724527907906011
0.1727734357 -0.09699654579 -0.0018130488629826593 0.00017295124997048527
0.1780948937 -0.09699654579 -0.0018309836432491046 0.00017346257142327796
0.1834163517 -0.09699654579 -0.0018484976088760086 0.00017396934409871434
0.1887378097 -0.09699654579 -0.0018642585842858898 0.00017448179911045696
0.1940592676 -0.09699654579 -0.001879858463874809 0.00017499044719976718
0.1993807256 -0.09699654579 -0.0018826103922577632 0.00015977174871000148
0.2047021836 -0.09699654579 -0.0018816322558166888 0.00014005452803655274
0.2100236416 -0.09699654579 -0.0018796351310010678 0.0001230403792122801
0.2153450996 -0.09699654579 -0.0018775431760050143 0.00010607688260539364
0.2206665576 -0.09699654579 -0.0018754017184619647 8.910270691779224e-05
0.2259880155 -0.09699654579 -0.0018734125867910718 7.212743452901236e-05
0.2313094735 -0.09699654579 -0.0018431204332426503 6.302146163836655e-05
0.2366309315 -0.09699654579 -0.0018056023594041394 5.594730001637849e-05
0.2419523895 -0.09699654579 -0.0017681321099083977 4.888313263217573e-05
0.2472738475 -0.09699654579 -0.001730686298662435 4.1831317567875696e-05
0.2525953054 -0.09699654579 -0.0016951335662420965 3.616407635428454e-05
0.2579167783 -0.09699654579 -0.0016607555738027556 3.132691133046315e-05
0.2632382214 -0.09699654579 -0.0016237601736517704 5.963928408828051e-05
0.2685596943 -0.09699654579 -0.0015861207781218175 9.52480707388344e-05
0.2738811374 -0.09699654579 -0.0015497125576004992 0.0001295686827440717
0.2792026103 -0.09699654579 -0.0015146947211851442 0.00016281053071409956
0.2845240533 -0.09699654579 -0.0014796169639387448 0.00019605241074474448
0.2898455262 -0.09699654579 -0.0014437139656227108 0.00023014504208535415
0.2951669693 -0.09699654579 -0.001437542814847344 0.0002698289305650171
0.3004884422 -0.09699654579 -0.0014347409260712205 0.0003091606403387829
0.3058098853 -0.09699654579 -0.0014318395059785996 0.00034854534717576754
0.3111313581 -0.09699654579 -0.0014288907001094465 0.0003879421893666896
0.3164528012 -0.09699654579 -0.0014253856573071034 0.00042633824245547276
0.3217742741 -0.09699654579 -0.0014217360750395423 0.00046289705295736835
0.3270957172 -0.09699654579 -0.001429229350252641 0.00048186347061312314
0.3324171901 -0.09699654579 -0.0014364494317289569 0.0005008438438519426
0.3377386332 -0.09699654579 -0.0014426895447817616 0.0005198872647275499
0.343060106 -0.09699654579 -0.0014480560080391773 0.0005389574921322789
0.3483815491 -0.09699654579 -0.0014540394321220327 0.0005580440259973314
0.353703022 -0.09699654579 -0.0014573636140632238 0.0005739712007534989
0.3590244651 -0.09699654579 -0.0014542852717299125 0.0005837668635680177
0.364345938 -0.09699654579 -0.0014504857474550803 0.0005939808981186372
0.369667381 -0.09699654579 -0.0014467611458678124 0.0006042734543317057
0.3749888539 -0.09699654579 -0.0014433883014718105 0.0006144543425922748
0.380310297 -0.09699654579 -0.001439215293005468 0.0006253429097773698
0.3856317699 -0.09699654579 -0.0014236818613036946 0.0006295395137353398
0.390953213 -0.09699654579 -0.0014046901385523815 0.0006316331251394677
0.3962746859 -0.09699654579 -0.0013862901229911419 0.0006323008036393536
0.4015961289 -0.09699654579 -0.001367352267132921 0.0006352499904401943
0.4069176018 -0.09699654579 -0.0013486629558153117 0.0006390595554346513
0.4122390449 -0.09699654579 -0.0013204016360643812 0.0006464500049309791
0.4175605178 -0.09699654579 -0.0012788554158053647 0.0006587658380836423
0.4228819609 -0.09699654579 -0.0012394683450096073 0.0006728990231287408
0.4282034338 -0.09699654579 -0.001200643364006351 0.0006872765233228065
0.4335248768 -0.09699654579 -0.0011616441281838512 0.0007017084148181178
0.4388463497 -0.09699654579 -0.0011198599821839541 0.0007212738884046035
0.4441677928 -0.09699654579 -0.0010756257173833235 0.00075512153210235
0.4494892657 -0.09699654579 -0.0010314849104294836 0.0007887916367315452
0.4548107088 -0.09699654579 -0.0009876163342455583 0.0008224809411451925
0.4601321816 -0.09699654579 -0.0009443155413425189 0.0008559942075950652
0.4654536247 -0.09699654579 -0.000905262834243238 0.0008941499928457026
0.4707750976 -0.09699654579 -0.000868702052474004 0.0009391015011888852
0.4760965407 -0.09699654579 -0.0008317794239843507 0.0009849107407571577
0.4814180136 -0.09699654579 -0.0007953283273515938 0.0010298653554234676
0.4867394567 -0.09699654579 -0.0007595095150997307 0.0010744936835904771
0.4920609295 -0.09699654579 -0.0007288071972333359 0.0011208187039937734
0.4973823726 -0.09699654579 -0.000699797804264083 0.0011675600229828099
0.5027038455 -0.09699654579 -0.0006697044137208283 0.0012134594409244552
0.5080252886 -0.09699654579 -0.0006403932364454763 0.0012600594657823623
0.5133467317 -0.09699654579 -0.0006101544768186668 0.0013046326153893387
0.5186682343 -0.09699654579 -0.0005788117729223921 0.00134667023110114
0.5239896774 -0.09699654579 -0.0005473302008631024 0.0013898279225407094
0.5293111205 -0.09699654579 -0.0005156820547818014 0.0014323254470880503
0.5346325636 -0.09699654579 -0.00047990450697901527 0.001473846586890673
0.5399540663 -0.09699654579 -0.00043819693851051254 0.0015155893426096326
0.5452755094 -0.09699654579 -0.0003969242828538282 0.0015581636251072745
0.5505969524 -0.09699654579 -0.0003550127241838536 0.001599880702031581
0.5559183955 -0.09699654579 -0.0003046058147524981 0.0016449159905291427
0.5612398982 -0.09699654579 -0.00025239780494297633 0.0016929476014170741
0.5665613413 -0.09699654579 -0.00020009167434773643 0.0017409037696000623
0.5718827844 -0.09699654579 -0.0001426738265944235 0.001790191105176111
0.5772042274 -0.09699654579 -8.167846708331449e-05 0.0018459321769894244
0.5825257301 -0.09699654579 -2.0402651073792677e-05 0.001901685718889591
0.5878471732 -0.09699654579 4.440021469591185e-05 0.001959334446287258
0.5931686163 -0.09699654579 0.00011281453654818737 0.0020232383479739146
0.5984900594 -0.09699654579 0.00018218867458305314 0.0020865914996690237
0.6038115621 -0.09699654579 0.0002548115079862466 0.00215613829536317
0.6091330051 -0.09699654579 0.00033135184562254575 0.002228577664331631
0.6144544482 -0.09699654579 0.000407881382012027 0.0023039712908529777
0.6197758913 -0.09699654579 0.0004908448256916728 0.0023865221192678966
0.625097394 -0.09699654579 0.0005741208130435535 0.0024709069599987625
0.6304188371 -0.09699654579 0.0006607918954101565 0.0025609718510796672
0.6357402802 -0.09699654579 0.0007507369210433348 0.002653305998720856
0.6410617828 -0.09699654579 0.0008410418998491612 0.0027527261865896687
0.6463832259 -0.09699654579 0.0009351860883103119 0.002856597629528531
0.651704669 -0.09699654579 0.0010320631925306188 0.0029657887406508614
0.6570261121 -0.09699654579 0.0011302982735223 0.0030832200693549556
0.6623476148 -0.09699654579 0.0012299935864402776 0.0032054696633374963
0.6676690578 -0.09699654579 0.0013323492024330719 0.0033313503985988465
0.6729905009 -0.09699654579 0.0014378690865367596 0.0034658879702921556
0.678311944 -0.09699654579 0.0015456188170979517 0.0036068346044621606
0.6836334467 -0.09699654579 0.0016532465969866688 0.0037540322671526997
0.6889548898 -0.09699654579 0.001763138111560404 0.003911373816664763
0.6942763329 -0.09699654579 0.0018732365111387528 0.004075196164145855
0.6995977759 -0.09699654579 0.0019869226926330953 0.004246925519522597
0.7049192786 -0.09699654579 0.0021010174958334756 0.004427795592411742
0.7102407217 -0.09699654579 0.002216249178895574 0.004617278931035943
0.7155621648 -0.09699654579 0.0023322192620768515 0.004819066056234947
0.7208836079 -0.09699654579 0.002450657343675351 0.005029187386870751
0.7262051105 -0.09699654579 0.002569752728733583 0.005250145001489789
0.7315265536 -0.09699654579 0.0026861478229402466 0.005483661411792312
0.7368479967 -0.09699654579 0.0028043220478716825 0.005724738624644416
0.7421694398 -0.09699654579 0.00291974306257827 0.005980746980878618
0.7474909425 -0.09699654579 0.0030368832115141554 0.006247155860417184
0.7528123856 -0.09699654579 0.0031484882265186863 0.00652968224267244
0.7581338286 -0.09699654579 0.0032600301944128744 0.006826937812212647
-0.3008363545 -0.09367749095 -0.0009603851366199155 -0.000722760390661868
-0.2955148816 -0.09367749095 -0.0009705429250112518 -0.0007089934679428584
-0.2901934385 -0.09367749095 -0.0009842989247621848 -0.0006994624948498023
-0.2848719656 -0.09367749095 -0.0009905748421665669 -0.0006904008721205469
-0.2795505226 -0.09367749095 -0.0009970759781481435 -0.0006845682599702492
-0.2742290497 -0.09367749095 -0.0010053112163651312 -0.0006858030351700222
-0.2689076066 -0.09367749095 -0.0010101536764420475 -0.0006883552193730861
-0.2635861337 -0.09367749095 -0.0010123558628348196 -0.0007015752895014482
-0.2582646906 -0.09367749095 -0.0010034224847765467 -0.0006810889057328825
-0.2529432178 -0.09367749095 -0.0009928483428344125 -0.000654077888444328