VARIABLES = X,Y,phix,phiy
ZONE I=200,J=200,F=POINT 
-0.3008363545 -0.1003156006 -0.00042883383970393317 -0.00010916013169257768
-0.2955148816 -0.1003156006 -0.00042248479228963927 -0.0001267990903055223
-0.2901934385 -0.1003156006 -0.00042636737398391874 -0.00013388344530140855
-0.2848719656 -0.1003156006 -0.000430475222512782 -0.00014129050150671696
-0.2795505226 -0.1003156006 -0.00043551880874662287 -0.00014768162718359305
-0.2742290497 -0.1003156006 -0.0004386833791351296 -0.00015185201494789569
-0.2689076066 -0.1003156006 -0.0004426928618102617 -0.00015313354656985772
-0.2635861337 -0.1003156006 -0.00043352601105756057 -0.00014522330547551426
-0.2582646906 -0.1003156006 -0.00041683508461916454 -0.00013827595710212332
-0.2529432178 -0.1003156006 -0.0004004951817860165 -0.0001293170202642477
-0.2476217598 -0.1003156006 -0.0003798115380481234 -0.0001208103348908095
-0.2423003018 -0.1003156006 -0.0003624097413634323 -0.00011966388639610641
-0.2369788438 -0.1003156006 -0.00035213770916409857 -0.0001200794505479373
-0.2316573858 -0.1003156006 -0.00033986764951722217 -0.00011355101006270715
-0.2263359278 -0.1003156006 -0.0003425671807463447 -0.00010091394658142018
-0.2210144699 -0.1003156006 -0.0003572485265855447 -9.432683637717065e-05
-0.2156930119 -0.1003156006 -0.00037425019338753707 -8.801471140825224e-05
-0.2103715539 -0.1003156006 -0.0004041912781070148 -8.262655335640271e-05
-0.2050500959 -0.1003156006 -0.00038197056033051027 -8.496373941340551e-05
-0.1997286379 -0.1003156006 -0.00035232327244179664 -9.512247503452943e-05
-0.19440718 -0.1003156006 -0.00032138435457655683 -0.00010760678289529621
-0.189085722 -0.1003156006 -0.00030756304360556334 -9.379392336317158e-05
-0.183764264 -0.1003156006 -0.00029266211504871075 -7.34741361955643e-05
-0.178442806 -0.1003156006 -0.00027454589570696444 -5.160568319573441e-05
-0.173121348 -0.1003156006 -0.00027380191140886586 -3.202717303176802e-05
-0.16779989 -0.1003156006 -0.00027767565214807514 -1.559029285457918e-05
-0.1624784321 -0.1003156006 -0.0002828080942561777 4.274960949288512e-06
-0.1571569741 -0.1003156006 -0.0002887209734184967 2.0901227834923818e-05
-0.1518355161 -0.1003156006 -0.0002974718563507478 3.63865577382162e-05
-0.1465140581 -0.1003156006 -0.00030733155651631273 5.2114250856758776e-05
-0.1411926001 -0.1003156006 -0.0003170653193592244 6.383951579544987e-05
-0.1358711421 -0.1003156006 -0.0003271511931644007 6.829966419945344e-05
-0.1305496842 -0.1003156006 -0.00033727458481461095 7.276063832824848e-05
-0.1252282262 -0.1003156006 -0.00034919299299016477 7.68647406362523e-05
-0.1199067682 -0.1003156006 -0.00035972540448197854 7.738030352394724e-05
-0.1145853102 -0.1003156006 -0.00036954539046711354 7.719102626537819e-05
-0.1092638522 -0.1003156006 -0.0003807416867670852 7.691518749859885e-05
-0.1039423943 -0.1003156006 -0.00039132879948981965 7.64780533770507e-05
-0.09862093627 -0.1003156006 -0.00039925967734474654 7.406979511993754e-05
-0.09329947084 -0.1003156006 -0.0004077584154595913 7.117111855578116e-05
-0.08797801286 -0.1003156006 -0.00041623751605811277 6.828161245814574e-05
-0.08265655488 -0.1003156006 -0.0004247486998225428 6.483908137379261e-05
-0.0773350969 -0.1003156006 -0.00042730327805391575 5.794715997048708e-05
-0.07201363891 -0.1003156006 -0.00042981378268225345 5.112333219804279e-05
-0.06669218093 -0.1003156006 -0.0004323593735037117 4.4299965194736605e-05
-0.06137072667 -0.1003156006 -0.00043510176564040244 3.678615362702989e-05
-0.05604926869 -0.1003156006 -0.00043576315278424227 3.0076588189426653e-05
-0.05072781071 -0.1003156006 -0.00043585117739567173 2.376937601703588e-05
-0.045406349 -0.1003156006 -0.00043570716768109353 1.7443918098081065e-05
-0.04008489102 -0.1003156006 -0.0004362243262377855 1.1186535442246294e-05
-0.03476343304 -0.1003156006 -0.000437317348091011 5.867895548809957e-06
-0.02944197692 -0.1003156006 -0.0004391718565208089 2.928559946899037e-06
-0.02412051894 -0.1003156006 -0.0004413269003634247 -1.8159694123738216e-08
-0.01879905909 -0.1003156006 -0.00044410998589054193 -2.9958623467286774e-06
-0.01347760204 -0.1003156006 -0.00044626903396248994 -5.949645451344298e-06
-0.00815614406 -0.1003156006 -0.00044651995257145237 -8.364647569948636e-06
-0.00283468538 -0.1003156006 -0.0004454270922226543 -1.0117551591949047e-05
0.002486772602 -0.1003156006 -0.00044449960982519447 -1.217995738481402e-05
0.007808230817 -0.1003156006 -0.00044331591758848334 -1.4231807394184828e-05
0.0131296888 -0.1003156006 -0.00044225670779722326 -1.6051339311927676e-05
0.01845114678 -0.1003156006 -0.00044021852597261126 -1.6250330711840947e-05
0.02377260476 -0.1003156006 -0.0004381352785181014 -1.4992100068163874e-05
0.02909406275 -0.1003156006 -0.00043604382214583676 -1.3636062188130852e-05
0.03441552073 -0.1003156006 -0.0004340836019527665 -1.2275868351096283e-05
0.03973697871 -0.1003156006 -0.0004319272598817521 -1.1007275352554527e-05
0.04505843669 -0.1003156006 -0.00043042473799271755 -9.40287635758153e-06
0.05037989467 -0.1003156006 -0.00043011692130565354 -7.204533929979307e-06
0.05570135266 -0.1003156006 -0.00043024224896778785 -4.9195989419098885e-06
0.06102281436 -0.1003156006 -0.00043045343791562615 -2.646284653194556e-06
0.06634426862 -0.1003156006 -0.00043018701788638986 -4.275110114681365e-07
0.0716657266 -0.1003156006 -0.000429876186636549 1.7485984055310974e-06
0.07698718458 -0.1003156006 -0.00042901524677820376 2.0343606932987612e-06
0.08230864257 -0.1003156006 -0.00042841264838507266 2.22719063338438e-06
0.08763010055 -0.1003156006 -0.0004277911091553999 2.3299207267803858e-06
0.09295155853 -0.1003156006 -0.0004270690363007331 2.5000621977182195e-06
0.09827301651 -0.1003156006 -0.00042642567522653535 2.7465817476626958e-06
0.1035944745 -0.1003156006 -0.00042592185350489643 3.816124066999404e-06
0.1089159325 -0.1003156006 -0.0004256720486548042 6.6802984926158694e-06
0.1142373979 -0.1003156006 -0.0004256491774940021 9.559854770516359e-06
0.1195588559 -0.1003156006 -0.0004253653927331367 1.2249197636225794e-05
0.1248803139 -0.1003156006 -0.0004252422882622195 1.501444223621855e-05
0.1302017719 -0.1003156006 -0.0004251598604154372 1.780497648623952e-05
0.1355232298 -0.1003156006 -0.00042500803805385775 2.026686246303364e-05
0.1408446878 -0.1003156006 -0.00042522869300432427 2.255613234106871e-05
0.1461661458 -0.1003156006 -0.00042493754497241053 2.477869318053356e-05
0.1514876038 -0.1003156006 -0.00042492919813563116 2.6989643875874152e-05
0.1568090618 -0.1003156006 -0.0004246593859486788 2.9192579612362135e-05
0.1621305197 -0.1003156006 -0.00042468196097787437 3.137527287887105e-05
0.1674519777 -0.1003156006 -0.0004241055343310223 2.8682190123119434e-05
0.1727734357 -0.1003156006 -0.000422758586849957 2.398987662762807e-05
0.1780948937 -0.1003156006 -0.00042162732868202 1.9303399465971882e-05
0.1834163517 -0.1003156006 -0.0004200955632497418 1.4598271238885708e-05
0.1887378097 -0.1003156006 -0.000418746485819907 1.013585387718771e-05
0.1940592676 -0.1003156006 -0.00041682992762691426 6.22742597523088e-06
0.1993807256 -0.1003156006 -0.00040988535973151196 6.8837939213524796e-06
0.2047021836 -0.1003156006 -0.0004011715731698454 9.042852719157332e-06
0.2100236416 -0.1003156006 -0.0003925504872645787 1.1170467400410305e-05
0.2153450996 -0.1003156006 -0.00038451113865781893 1.328129507515435e-05
0.2206665576 -0.1003156006 -0.00037630521619189214 1.5443854646304283e-05
0.2259880155 -0.1003156006 -0.00036798664951376975 1.760092797586489e-05
0.2313094735 -0.1003156006 -0.000363348310332684 2.7049691554976504e-05
0.2366309315 -0.1003156006 -0.00036024384706753157 3.79293986956398e-05
0.2419523895 -0.1003156006 -0.00035729799552341866 4.8496523292577305e-05
0.2472738475 -0.1003156006 -0.0003545934981024614 5.908818986640518e-05
0.2525953054 -0.1003156006 -0.00035293591545180737 6.97908779886216e-05
0.2579167783 -0.1003156006 -0.00035162715023526447 8.007915992010456e-05
0.2632382214 -0.1003156006 -0.00035730068824263786 8.633837110740403e-05
0.2685596943 -0.1003156006 -0.0003647920361103244 9.179192120055846e-05
0.2738811374 -0.1003156006 -0.00037255707086350563 9.739490970280642e-05
0.2792026103 -0.1003156006 -0.0003801518128602336 0.00010286855793683015
0.2845240533 -0.1003156006 -0.0003870632927755754 0.0001077932087846579
0.2898455262 -0.1003156006 -0.0003937223076837592 0.00011272186091709642
0.2951669693 -0.1003156006 -0.0004042040358456986 0.00010978137234113302
0.3004884422 -0.1003156006 -0.00041525396299145527 0.00010556163634035423
0.3058098853 -0.1003156006 -0.00042449290493709954 0.00010137590194457622
0.3111313581 -0.1003156006 -0.00043375712074262933 9.718025838408704e-05
0.3164528012 -0.1003156006 -0.00044285834276645885 9.299771316825925e-05
0.3217742741 -0.1003156006 -0.00045225281622964295 8.853680119685172e-05
0.3270957172 -0.1003156006 -0.0004542897057004109 7.121581230692538e-05
0.3324171901 -0.1003156006 -0.0004564436449440546 5.39290498163031e-05
0.3377386332 -0.1003156006 -0.00045900317091261586 3.6652783035582915e-05
0.343060106 -0.1003156006 -0.0004612505143397313 1.9325892726079047e-05
0.3483815491 -0.1003156006 -0.0004626028194230891 3.784691742326911e-06
0.353703022 -0.1003156006 -0.00045801927401389365 -1.2065990468478948e-05
0.3590244651 -0.1003156006 -0.0004398317688387978 -2.901959988554148e-05
0.364345938 -0.1003156006 -0.0004216909965560167 -4.5952051029113765e-05
0.369667381 -0.1003156006 -0.0004043252952562828 -6.087628252451268e-05
0.3749888539 -0.1003156006 -0.00038694698917842205 -7.631327918613971e-05
0.380310297 -0.1003156006 -0.0003692010241487041 -9.202347583956616e-05
0.3856317699 -0.1003156006 -0.00034195141064708915 -9.816545737038287e-05
0.390953213 -0.1003156006 -0.00031298327837032025 -0.0001003145079817733
0.3962746859 -0.1003156006 -0.0002841219006764126 -0.00010246631513421976
0.4015961289 -0.1003156006 -0.00025528819070884113 -0.00010465910725435122
0.4069176018 -0.1003156006 -0.00022625673308820885 -0.00010696183769650752
0.4122390449 -0.1003156006 -0.00019812797719293064 -0.0001038227477444366
0.4175605178 -0.1003156006 -0.00016740424967385655 -9.37733893456801e-05
0.4228819609 -0.1003156006 -0.00013623073665437678 -8.39420255450567e-05
0.4282034338 -0.1003156006 -0.00010472189446659285 -7.400230483709663e-05
0.4335248768 -0.1003156006 -7.513195393165202e-05 -6.382546728384796e-05
0.4388463497 -0.1003156006 -4.546629702221554e-05 -5.0369686677989865e-05
0.4441677928 -0.1003156006 -1.639298323363727e-05 -2.8119433706233846e-05
0.4494892657 -0.1003156006 1.2530903303004875e-05 -5.8227851253604605e-06
0.4548107088 -0.1003156006 4.02629633567908e-05 1.6300427409996226e-05
0.4601321816 -0.1003156006 6.871103967293117e-05 3.840998403022977e-05
0.4654536247 -0.1003156006 9.569882444837919e-05 6.513163666787849e-05
0.4707750976 -0.1003156006 0.00011947012316205993 9.901403355533074e-05
0.4760965407 -0.1003156006 0.00014229214760779738 0.00013195756457361508
0.4814180136 -0.1003156006 0.00016498368855500162 0.00016491003555861388
0.4867394567 -0.1003156006 0.00018793371309934757 0.0001979414253170283
0.4920609295 -0.1003156006 0.00020307719030377252 0.0002379449248868815
0.4973823726 -0.1003156006 0.0002163609316463964 0.00027916352401570146
0.5027038455 -0.1003156006 0.00023029073847836455 0.00032047051093002897
0.5080252886 -0.1003156006 0.00024397029146646138 0.0003617579141164589
0.5133467317 -0.1003156006 0.00025211546947177056 0.00040220174455573616
0.5186682343 -0.1003156006 0.0002539313578104093 0.0004450227734600963
0.5239896774 -0.1003156006 0.00025563462357890674 0.0004878855137071541
0.5293111205 -0.1003156006 0.0002575603235413972 0.0005302560361012312
0.5346325636 -0.1003156006 0.00025695472132305933 0.0005699810618908618
0.5399540663 -0.1003156006 0.0002508971792950408 0.0006086037781612448
0.5452755094 -0.1003156006 0.0002447387742530943 0.0006475565202294794
0.5505969524 -0.1003156006 0.00023889697511396163 0.0006858875744760024
0.5559183955 -0.1003156006 0.00023214875433997254 0.000721010041817191
0.5612398982 -0.1003156006 0.0002230734374821488 0.0007552494895751186
0.5665613413 -0.1003156006 0.0002138907526728835 0.0007894171349234505
0.5718827844 -0.1003156006 0.00020621189543539248 0.0008222210199838802
0.5772042274 -0.1003156006 0.00019753974460435617 0.0008525439742985346
0.5825257301 -0.1003156006 0.00018893186839897988 0.0008829829031692744
0.5878471732 -0.1003156006 0.00018151294041630225 0.0009124094399714794
0.5931686163 -0.1003156006 0.00017581389042405185 0.0009404119602647861
0.5984900594 -0.1003156006 0.00016983090846022398 0.0009687305566817328
0.6038115621 -0.1003156006 0.0001662375929074236 0.000995929086158913
0.6091330051 -0.1003156006 0.00016338618738764366 0.0010235221574067766
0.6144544482 -0.1003156006 0.00016273947594588585 0.0010508470511692044
0.6197758913 -0.1003156006 0.00016366809653431004 0.0010791818367352631
0.625097394 -0.1003156006 0.00016644001700953724 0.001108849649744972
0.6304188371 -0.1003156006 0.0001719212648620586 0.0011401263694227376
0.6357402802 -0.1003156006 0.00017746498473185984 0.0011734743385317904
0.6410617828 -0.1003156006 0.00018557057878549666 0.0012099936157872796
0.6463832259 -0.1003156006 0.0001952168602078044 0.0012479106088847175
0.651704669 -0.1003156006 0.00020639001028284587 0.001288403586721595
0.6570261121 -0.1003156006 0.00021774705973361585 0.0013342138759280895
0.6623476148 -0.1003156006 0.00023004159925756477 0.0013845300302487242
0.6676690578 -0.1003156006 0.0002432476541707168 0.0014382195379745565
0.6729905009 -0.1003156006 0.000255831338196186 0.0015003427299425504
0.678311944 -0.1003156006 0.0002660798985664728 0.0015666339374438495
0.6836334467 -0.1003156006 0.0002754001627466258 0.0016385368203811247
0.6889548898 -0.1003156006 0.0002841850245385955 0.0017200382198231964
0.6942763329 -0.1003156006 0.00028632481072686674 0.0018061294692910755
0.6995977759 -0.1003156006 0.00028534635393116044 0.0018986505289095613
0.7049192786 -0.1003156006 0.00027867661493843535 0.0019996206792653763
0.7102407217 -0.1003156006 0.0002671312366447052 0.002109210844640843
0.7155621648 -0.1003156006 0.000244666091890908 0.002226408491637646
0.7208836079 -0.1003156006 0.00021204932567535497 0.002348754134733951
0.7262051105 -0.1003156006 0.00016981460999552765 0.0024778858047045434
0.7315265536 -0.1003156006 0.00011327995766988347 0.0026150862790047884
0.7368479967 -0.1003156006 3.710379126574532e-05 0.0027587806103280595
0.7421694398 -0.1003156006 -5.400441480899082e-05 0.002907755740803247
0.7474909425 -0.1003156006 -0.00015984097528058203 0.003051897468817725
0.7528123856 -0.1003156006 -0.0002940947711976107 0.0032013080031901035
0.7581338286 -0.1003156006 -0.0004512494597414966 0.0033502744365558478
-0.3008363545 -0.09699654579 -0.00043862826479891846 -0.00010302720703016813
-0.2955148816 -0.09699654579 -0.00043038671351390665 -0.00012382768906767645
-0.2901934385 -0.09699654579 -0.00042777694705426036 -0.0001390429895877392
-0.2848719656 -0.09699654579 -0.0004324315012782111 -0.00014605657624089724
-0.2795505226 -0.09699654579 -0.00043949417613186296 -0.00015294831336671178
-0.2742290497 -0.09699654579 -0.0004444239662967266 -0.00015815994782011927
-0.2689076066 -0.09699654579 -0.0004477307857039355 -0.00015680965485481292
-0.2635861337 -0.09699654579 -0.0004438864767400614 -0.0001540522223188775
-0.2582646906 -0.09699654579 -0.00042645671570684863 -0.0001508382152355741
-0.2529432178 -0.09699654579 -0.00040543262929428997 -0.00014329084667845634
-0.2476217598 -0.09699654579 -0.0003815135109539573 -0.00013435377992439466
-0.2423003018 -0.09699654579 -0.0003590443475942876 -0.00012458123799984633
-0.2369788438 -0.09699654579 -0.00033794594060663303 -0.00012263507152375302
-0.2316573858 -0.09699654579 -0.0003332488332936789 -0.00011207194980144063
-0.2263359278 -0.09699654579 -0.0003275779312867619 -9.604194384158175e-05
-0.2210144699 -0.09699654579 -0.00034074964412201533 -8.790225905347846e-05
-0.2156930119 -0.09699654579 -0.00037016526738878303 -8.326134873111155e-05
-0.2103715539 -0.09699654579 -0.0004013156598970293 -8.848533799934678e-05
-0.2050500959 -0.09699654579 -0.00038828317583458497 -9.978986864629655e-05
-0.1997286379 -0.09699654579 -0.0003572978499158748 -0.00011240892892617422
-0.19440718 -0.09699654579 -0.00032350592446098603 -0.00012476046315678055
-0.189085722 -0.09699654579 -0.0002982869518691136 -0.00011013850798328676
-0.183764264 -0.09699654579 -0.0002763776090636909 -8.586473811108696e-05
-0.178442806 -0.09699654579 -0.0002518675467533473 -5.746669064773364e-05
-0.173121348 -0.09699654579 -0.00024850531020119095 -3.617602423869321e-05
-0.16779989 -0.09699654579 -0.00025440106788863603 -1.4140308342470697e-05
-0.1624784321 -0.09699654579 -0.0002604935897802322 1.0783426853458131e-05
-0.1571569741 -0.09699654579 -0.0002667032519420137 2.909108255907014e-05
-0.1518355161 -0.09699654579 -0.00027518673719296603 4.502452708076137e-05
-0.1465140581 -0.09699654579 -0.00028427607273017445 5.9721451848362735e-05
-0.1411926001 -0.09699654579 -0.00029405481274483576 7.150669458105434e-05
-0.1358711421 -0.09699654579 -0.00030642210509535455 7.556298886924089e-05
-0.1305496842 -0.09699654579 -0.00031990196853322144 7.947418980354128e-05
-0.1252282262 -0.09699654579 -0.000334342336684279 8.33839235604019e-05
-0.1199067682 -0.09699654579 -0.00034826348126519113 8.406998817763976e-05
-0.1145853102 -0.09699654579 -0.0003609945225593563 8.396141612189e-05
-0.1092638522 -0.09699654579 -0.00037421252693487216 8.384172132446946e-05
-0.1039423943 -0.09699654579 -0.00038850527534157905 8.346152826517961e-05
-0.09862093627 -0.09699654579 -0.0003984648322050931 8.037882725515024e-05
-0.09329947084 -0.09699654579 -0.00040872711041278737 7.69853775366185e-05
-0.08797801286 -0.09699654579 -0.0004194336451556922 7.328673125291953e-05
-0.08265655488 -0.09699654579 -0.0004295149551447324 6.953267740655176e-05
-0.0773350969 -0.09699654579 -0.0004326008784710396 6.186390045562406e-05
-0.07201363891 -0.09699654579 -0.00043569977135650076 5.371231012216979e-05
-0.06669218093 -0.09699654579 -0.0004392557729725714 4.558964493425066e-05
-0.06137072667 -0.09699654579 -0.0004438351319586 3.7498301106873436e-05
-0.05604926869 -0.09699654579 -0.00044707290459155094 3.07907657756829e-05
-0.05072781071 -0.09699654579 -0.00044946885919162726 2.4731278356721652e-05
-0.045406349 -0.09699654579 -0.0004519999438073351 1.867357400709018e-05
-0.04008489102 -0.09699654579 -0.00045486354346439356 1.2592143133833862e-05
-0.03476343304 -0.09699654579 -0.0004588328282209866 7.322075956998927e-06
-0.02944197692 -0.09699654579 -0.00046327385993963615 4.196993275934494e-06
-0.02412051894 -0.09699654579 -0.0004674071317200728 1.1340892149224474e-06
-0.01879905909 -0.09699654579 -0.000471803024110666 -1.9895239131943326e-06
-0.01347760204 -0.09699654579 -0.0004765971566485989 -5.189924530778811e-06
-0.00815614406 -0.09699654579 -0.00047824389158859884 -8.017828274561227e-06
-0.00283468538 -0.09699654579 -0.00047769474002392633 -1.0309549203418575e-05
0.002486772602 -0.09699654579 -0.00047718723213069315 -1.2724505020976553e-05
0.007808230817 -0.09699654579 -0.0004766382189563017 -1.5163732402421436e-05
0.0131296888 -0.09699654579 -0.000476053399064909 -1.7511809171616904e-05
0.01845114678 -0.09699654579 -0.0004747031510164003 -1.778550009644375e-05
0.02377260476 -0.09699654579 -0.0004728532818204216 -1.6325035081997342e-05
0.02909406275 -0.09699654579 -0.00047101373273665 -1.4800826540922642e-05
0.03441552073 -0.09699654579 -0.00046910898958126706 -1.3269610513032318e-05
0.03973697871 -0.09699654579 -0.000467253018732293 -1.180156930718158e-05
0.04505843669 -0.09699654579 -0.0004661679054895131 -9.981784789953507e-06
0.05037989467 -0.09699654579 -0.0004663195799550728 -7.647561390667287e-06
0.05570135266 -0.09699654579 -0.0004662969968456521 -5.296176841470977e-06
0.06102281436 -0.09699654579 -0.00046659088773880577 -2.927205129233272e-06
0.06634426862 -0.09699654579 -0.0004664659102700823 -6.004094196609543e-07
0.0716657266 -0.09699654579 -0.00046655130612212304 1.7230183700904178e-06
0.07698718458 -0.09699654579 -0.00046534702178561846 1.699094626815041e-06
0.08230864257 -0.09699654579 -0.00046404750715624445 1.5967408909248238e-06
0.08763010055 -0.09699654579 -0.00046302909448822475 1.492570994702421e-06
0.09295155853 -0.09699654579 -0.0004617828531138235 1.4955810583475705e-06
0.09827301651 -0.09699654579 -0.00046052107114110557 1.4407258239439418e-06
0.1035944745 -0.09699654579 -0.0004594733548125672 2.5187659647636414e-06
0.1089159325 -0.09699654579 -0.00045847385230657724 5.7770887080274865e-06
0.1142373979 -0.09699654579 -0.00045754256324538053 8.890028175092802e-06
0.1195588559 -0.09699654579 -0.0004569869800244296 1.1873319847992568e-05
0.1248803139 -0.09699654579 -0.0004563753972298465 1.4856577875228436e-05
0.1302017719 -0.09699654579 -0.0004555705159240019 1.796390824772734e-05
0.1355232298 -0.09699654579 -0.0004551403151530709 2.0627103154608073e-05
0.1408446878 -0.09699654579 -0.0004551959002411053 2.300659532604187e-05
0.1461661458 -0.09699654579 -0.0004551514923983229 2.5350699381018074e-05
0.1514876038 -0.09699654579 -0.00045515110353820405 2.7761432807932333e-05
0.1568090618 -0.09699654579 -0.0004554695764119426 3.01610303116025e-05
0.1621305197 -0.09699654579 -0.0004556630663015356 3.2500126459487275e-05
0.1674519777 -0.09699654579 -0.0004537119129805742 2.9100081306215503e-05
0.1727734357 -0.09699654579 -0.0004513076761660041 2.375021144434532e-05
0.1780948937 -0.09699654579 -0.0004490164247709029 1.8048003622194244e-05
0.1834163517 -0.09699654579 -0.0004467722707606143 1.2485024025431584e-05
0.1887378097 -0.09699654579 -0.00044403363593490037 7.459343013849661e-06
0.1940592676 -0.09699654579 -0.00044163195619303003 2.4241150031263965e-06
0.1993807256 -0.09699654579 -0.0004320119184281956 2.934103680073967e-06
0.2047021836 -0.09699654579 -0.00042053505095243307 4.975754500537474e-06
0.2100236416 -0.09699654579 -0.00041014312518318524 7.0748107562265865e-06
0.2153450996 -0.09699654579 -0.00039986435722992825 9.230774835453917e-06
0.2206665576 -0.09699654579 -0.0003895987933884446 1.1379930746643471e-05
0.2259880155 -0.09699654579 -0.0003793334061963656 1.3553582620452356e-05
0.2313094735 -0.09699654579 -0.0003737985503322131 2.3726564612990204e-05
0.2366309315 -0.09699654579 -0.00037059462992642496 3.580237185690346e-05
0.2419523895 -0.09699654579 -0.0003669664246546596 4.789955792308587e-05
0.2472738475 -0.09699654579 -0.000363434399061881 5.997185023177556e-05
0.2525953054 -0.09699654579 -0.00036008381382412124 7.146377400380163e-05
0.2579167783 -0.09699654579 -0.0003570105590166307 8.247099166954459e-05
0.2632382214 -0.09699654579 -0.0003623360103995142 8.930011752087084e-05
0.2685596943 -0.09699654579 -0.00036964329821399816 9.529832408592117e-05
0.2738811374 -0.09699654579 -0.0003761505920773058 0.00010109566338657458
0.2792026103 -0.09699654579 -0.0003823188858661305 0.00010658779825169168
0.2845240533 -0.09699654579 -0.00038862405421302476 0.00011216295349773753
0.2898455262 -0.09699654579 -0.0003953197017043466 0.00011781347052316463
0.2951669693 -0.09699654579 -0.000405716542591988 0.00011445451671041733
0.3004884422 -0.09699654579 -0.00041618095908345967 0.00011020023269811641
0.3058098853 -0.09699654579 -0.0004278992524762564 0.00010602105909256531
0.3111313581 -0.09699654579 -0.00043969296912916764 0.0001018592475179847
0.3164528012 -0.09699654579 -0.00045075611004184024 9.764799275692984e-05
0.3217742741 -0.09699654579 -0.00046023209553767503 9.263617661485253e-05
0.3270957172 -0.09699654579 -0.0004629125333905405 7.347334252558765e-05
0.3324171901 -0.09699654579 -0.0004651474165434033 5.428602322121991e-05
0.3377386332 -0.09699654579 -0.0004671846880523281 3.572574971712076e-05
0.343060106 -0.09699654579 -0.00046876806141409104 1.7848027066312698e-05
0.3483815491 -0.09699654579 -0.0004703478629867122 -1.0966209204220926e-07
0.353703022 -0.09699654579 -0.000464384766137271 -1.8757330741145727e-05
0.3590244651 -0.09699654579 -0.00044389620602488177 -3.778555937260507e-05
0.364345938 -0.09699654579 -0.000423904927303806 -5.545179757605881e-05
0.369667381 -0.09699654579 -0.00040409802796762657 -7.317323789534367e-05
0.3749888539 -0.09699654579 -0.00038555213804290593 -9.1092385623231e-05
0.380310297 -0.09699654579 -0.00036744421025587605 -0.00010792802995802681
0.3856317699 -0.09699654579 -0.00033955054163333284 -0.00011364415579880544
0.390953213 -0.09699654579 -0.00030877642109978864 -0.00011676274969330339
0.3962746859 -0.09699654579 -0.0002772568739119776 -0.00012022892311483598
0.4015961289 -0.09699654579 -0.000246834327625183 -0.00012308918780786185
0.4069176018 -0.09699654579 -0.00021723172368464798 -0.00012565599620676561
0.4122390449 -0.09699654579 -0.00018638789845633032 -0.00012287548917243687
0.4175605178 -0.09699654579 -0.0001533304873509889 -0.00011309629217126935
0.4228819609 -0.09699654579 -0.00012190241157271689 -0.0001030498583913485
0.4282034338 -0.09699654579 -9.04305948911655e-05 -9.30072304832173e-05
0.4335248768 -0.09699654579 -5.8963780820417686e-05 -8.295779707655837e-05
0.4388463497 -0.09699654579 -2.6866216669479924e-05 -6.907619344418813e-05
0.4441677928 -0.09699654579 3.3352612942709227e-06 -4.633406432323797e-05
0.4494892657 -0.09699654579 3.364631817898212e-05 -2.38557857969306e-05
0.4548107088 -0.09699654579 6.406047294826229e-05 -1.436335758807508e-06
0.4601321816 -0.09699654579 9.383781131128015e-05 2.106407275263466e-05
0.4654536247 -0.09699654579 0.00012071483546151437 4.807737377444943e-05
0.4707750976 -0.09699654579 0.00014541585833078107 8.262874877959681e-05
0.4760965407 -0.09699654579 0.00017119247230627297 0.00011761063629282386
0.4814180136 -0.09699654579 0.00019593393770313776 0.00015213462987630254
0.4867394567 -0.09699654579 0.00021970608932486653 0.00018585638291920164
0.4920609295 -0.09699654579 0.00023552718939033528 0.00022719489939451368
0.4973823726 -0.09699654579 0.0002495313900266047 0.0002706428641395751
0.5027038455 -0.09699654579 0.000262740813661806 0.00031319306513081146
0.5080252886 -0.09699654579 0.00027633230071479254 0.00035596817793116467
0.5133467317 -0.09699654579 0.000284255126562937 0.0003996560516807982
0.5186682343 -0.09699654579 0.0002847575734579944 0.00044419973498476624
0.5239896774 -0.09699654579 0.00028653626953374444 0.00048701906185905487
0.5293111205 -0.09699654579 0.00028753766406195764 0.0005306911462061938
0.5346325636 -0.09699654579 0.00028489357320109774 0.0005731165779878049
0.5399540663 -0.09699654579 0.0002776649513023725 0.0006124099596356604
0.5452755094 -0.09699654579 0.000271256245822403 0.0006512991358777144
0.5505969524 -0.09699654579 0.0002640205405606079 0.0006905756971520912
0.5559183955 -0.09699654579 0.0002542551333679994 0.0007264845881623007
0.5612398982 -0.09699654579 0.0002451634541583046 0.0007607573534743578
0.5665613413 -0.09699654579 0.00023605303215253588 0.0007950478375863537
0.5718827844 -0.09699654579 0.00022575124159232246 0.0008278713550324364
0.5772042274 -0.09699654579 0.00021655671378393494 0.0008582376917517648
0.5825257301 -0.09699654579 0.00020758180333374724 0.0008885736738586429
0.5878471732 -0.09699654579 0.00019858737586104288 0.000917448741010987
0.5931686163 -0.09699654579 0.00019239398588920186 0.00094482097351968
0.5984900594 -0.09699654579 0.00018570823284319086 0.0009715288926402656
0.6038115621 -0.09699654579 0.00018199335922361245 0.0009982323642918761
0.6091330051 -0.09699654579 0.0001788849189338124 0.0010234779907474488
0.6144544482 -0.09699654579 0.00017754687076860801 0.001050289027685425
0.6197758913 -0.09699654579 0.00018062933066341613 0.0010780057251001817
0.625097394 -0.09699654579 0.00018370157715023866 0.0011062198399943452
0.6304188371 -0.09699654579 0.00018928701288106842 0.0011372366042322643
0.6357402802 -0.09699654579 0.00019736085598270602 0.0011683148984809107
0.6410617828 -0.09699654579 0.00020668913174186769 0.0012026611051699206
0.6463832259 -0.09699654579 0.00021833179365179077 0.001240476669002366
0.651704669 -0.09699654579 0.00023183311965137448 0.0012806562164301629
0.6570261121 -0.09699654579 0.00024575257129030875 0.0013271703582656599
0.6623476148 -0.09699654579 0.0002605943939654366 0.0013766885580909593
0.6676690578 -0.09699654579 0.0002765085684534891 0.0014312423401627468
0.6729905009 -0.09699654579 0.0002923819596066889 0.0014919494573135397
0.678311944 -0.09699654579 0.0003084572583505233 0.0015586608288884623
0.6836334467 -0.09699654579 0.00032232146354836455 0.0016313312449942905
0.6889548898 -0.09699654579 0.00033417708468040137 0.0017126044276374588
0.6942763329 -0.09699654579 0.0003417393011281734 0.0018010667958832818
0.6995977759 -0.09699654579 0.0003465920112633907 0.0018980456806305247
0.7049192786 -0.09699654579 0.00034578247695246335 0.002002271139541466
0.7102407217 -0.09699654579 0.00033773216973131953 0.0021150737388614944
0.7155621648 -0.09699654579 0.00031936531016954717 0.0022388128421561657
0.7208836079 -0.09699654579 0.0002931206027351288 0.0023711846595646712
0.7262051105 -0.09699654579 0.0002541452785215321 0.00251067303409233
0.7315265536 -0.09699654579 0.00020281715840387616 0.002655972618909743
0.7368479967 -0.09699654579 0.00013367012395347036 0.002808951304903628
0.7421694398 -0.09699654579 4.444452321511757e-05 0.0029679327822404937
0.7474909425 -0.09699654579 -6.344314425148266e-05 0.003130669809412239
0.7528123856 -0.09699654579 -0.00019635561085322857 0.003293651150002886
0.7581338286 -0.09699654579 -0.0003556839867925896 0.0034538429255433377
-0.3008363545 -0.09367749095 -0.0004499840010091405 -9.658225540094246e-05
-0.2955148816 -0.09367749095 -0.0004447454190135695 -0.00011776413732743894
-0.2901934385 -0.09367749095 -0.0004331458387620967 -0.00014039403518980591
-0.2848719656 -0.09367749095 -0.0004378423614779755 -0.00015224339298023124
-0.2795505226 -0.09367749095 -0.00044475514552161805 -0.00015924870051935112
-0.2742290497 -0.09367749095 -0.0004500197800187336 -0.0001638607168217945