VARIABLES = X,Y,phix,phiy
ZONE I=200,J=200,F=POINT 
-0.3008363545 -0.1003156006 -0.00029696995333352145 -0.0008897603501252969
-0.2955148816 -0.1003156006 -0.0002878770277695268 -0.0009007103803771131
-0.2901934385 -0.1003156006 -0.0002972377329000647 -0.0009004371655354597
-0.2848719656 -0.1003156006 -0.000306781427816296 -0.0009008358889740082
-0.2795505226 -0.1003156006 -0.0003162248196718056 -0.0009038847451195212
-0.2742290497 -0.1003156006 -0.00032233405504657864 -0.0009084622534615832
-0.2689076066 -0.1003156006 -0.0003267207585743976 -0.0009212665262157257
-0.2635861337 -0.1003156006 -0.0003181929193743496 -0.0009308710961593552
-0.2582646906 -0.1003156006 -0.0003055367170702256 -0.0009351653776533205
-0.2529432178 -0.1003156006 -0.00029419724005772376 -0.0009354866580800072
-0.2476217598 -0.1003156006 -0.0002800656981216984 -0.0009331528281082925
-0.2423003018 -0.1003156006 -0.00023901810922149615 -0.0009054522126007659
-0.2369788438 -0.1003156006 -0.00017350401414368364 -0.0008563907436748613
-0.2316573858 -0.1003156006 -9.483614533906683e-05 -0.0008008397210619328
-0.2263359278 -0.1003156006 -2.3345244516594727e-05 -0.0007383463590642916
-0.2210144699 -0.1003156006 -3.101285859010988e-05 -0.0006892271510064151
-0.2156930119 -0.1003156006 -4.0633343652266266e-05 -0.0006426571839552738
-0.2103715539 -0.1003156006 -5.791567043366067e-05 -0.0005987401868404755
-0.2050500959 -0.1003156006 -6.124270970085874e-05 -0.0005664438940073636
-0.1997286379 -0.1003156006 -6.163415297486841e-05 -0.0005207709261387032
-0.19440718 -0.1003156006 -6.955109548779599e-05 -0.00046642946657149886
-0.189085722 -0.1003156006 -8.412164507501482e-05 -0.0004157378777634175
-0.183764264 -0.1003156006 -9.738381648525087e-05 -0.0003681985158590526
-0.178442806 -0.1003156006 -0.00011017520904709323 -0.0003213322614016238
-0.173121348 -0.1003156006 -0.00013190314133776547 -0.0002914809669030448
-0.16779989 -0.1003156006 -0.00015605349498626532 -0.0002627663947624664
-0.1624784321 -0.1003156006 -0.00018053624353077537 -0.0002372596093033087
-0.1571569741 -0.1003156006 -0.00021310240880906216 -0.0002029321022299008
-0.1518355161 -0.1003156006 -0.0002535662489265395 -0.00015903030114997196
-0.1465140581 -0.1003156006 -0.0002957121799862888 -0.00011367925964759664
-0.1411926001 -0.1003156006 -0.00033684718114892516 -7.680267109837312e-05
-0.1358711421 -0.1003156006 -0.00037688773736370494 -5.78860741404369e-05
-0.1305496842 -0.1003156006 -0.00041691409738896397 -3.8979288554577795e-05
-0.1252282262 -0.1003156006 -0.0004567083732294847 -2.340650690064297e-05
-0.1199067682 -0.1003156006 -0.00048195096380972347 -2.065225733236475e-05
-0.1145853102 -0.1003156006 -0.0005035527223221669 -2.0723318522409655e-05
-0.1092638522 -0.1003156006 -0.0005254855250810864 -2.098101900422451e-05
-0.1039423943 -0.1003156006 -0.000547213815332402 -2.085837546391657e-05
-0.09862093627 -0.1003156006 -0.0005746908206782627 -1.0029332393011693e-05
-0.09329947084 -0.1003156006 -0.0006037315753119453 1.4211268802775559e-06
-0.08797801286 -0.1003156006 -0.0006327139122009158 1.2880034655281803e-05
-0.08265655488 -0.1003156006 -0.0006617770572313832 2.4272495225297172e-05
-0.0773350969 -0.1003156006 -0.0006893691393126603 3.314068169564115e-05
-0.07201363891 -0.1003156006 -0.0007170516501186829 4.200665293328654e-05
-0.06669218093 -0.1003156006 -0.0007445402329104106 5.086167367829128e-05
-0.06137072667 -0.1003156006 -0.0007726408773553777 5.884315853960737e-05
-0.05604926869 -0.1003156006 -0.0007928032694968793 6.289022086755038e-05
-0.05072781071 -0.1003156006 -0.0008116542767604222 6.631096852337644e-05
-0.045406349 -0.1003156006 -0.0008304303179147056 6.983713216668492e-05
-0.04008489102 -0.1003156006 -0.0008491093470482623 7.305057835574341e-05
-0.03476343304 -0.1003156006 -0.0008664773554986193 7.619812831456272e-05
-0.02944197692 -0.1003156006 -0.0008821676984009333 7.933240707649124e-05
-0.02412051894 -0.1003156006 -0.0008978372832843905 8.240910606984285e-05
-0.01879905909 -0.1003156006 -0.0009136306168520735 8.543874755354552e-05
-0.01347760204 -0.1003156006 -0.0009295518326543988 8.85217670102779e-05
-0.00815614406 -0.1003156006 -0.0009436224048117854 9.288079556496236e-05
-0.00283468538 -0.1003156006 -0.0009563835644643691 9.828200566191047e-05
0.002486772602 -0.1003156006 -0.0009691556547844647 0.00010343268581788502
0.007808230817 -0.1003156006 -0.0009817631378697678 0.0001085622159009527
0.0131296888 -0.1003156006 -0.0009945273522937472 0.00011394066656981671
0.01845114678 -0.1003156006 -0.0010079256519316085 0.00012254332869699304
0.02377260476 -0.1003156006 -0.0010222104137864374 0.0001336815561514311
0.02909406275 -0.1003156006 -0.0010362304627061615 0.00014506512038112536
0.03441552073 -0.1003156006 -0.0010505672095775084 0.00015645123951569886
0.03973697871 -0.1003156006 -0.0010647074312762604 0.00016761213128274916
0.04505843669 -0.1003156006 -0.0010806613108474443 0.00017822869671157073
0.05037989467 -0.1003156006 -0.0011017337509613176 0.00018842604634160924
0.05570135266 -0.1003156006 -0.0011230304475585702 0.0001989413288291395
0.06102281436 -0.1003156006 -0.0011442659551706507 0.00020958880089482832
0.06634426862 -0.1003156006 -0.0011655647505622092 0.00021991839191352173
0.0716657266 -0.1003156006 -0.0011863627614628412 0.0002300481445598668
0.07698718458 -0.1003156006 -0.0012131591112086333 0.00023264733684838783
0.08230864257 -0.1003156006 -0.0012401167232292754 0.00023465698327795585
0.08763010055 -0.1003156006 -0.0012679147403606961 0.00023670982068789849
0.09295155853 -0.1003156006 -0.0012950859683800427 0.00023871961992046135
0.09827301651 -0.1003156006 -0.001322095862133836 0.00024069814286307734
0.1035944745 -0.1003156006 -0.0013472266565533698 0.00023939777560392006
0.1089159325 -0.1003156006 -0.0013692846521268928 0.00023167477507862237
0.1142373979 -0.1003156006 -0.0013910930635906552 0.00022394078983572807
0.1195588559 -0.1003156006 -0.0014126172642727351 0.00021654784013877307
0.1248803139 -0.1003156006 -0.0014341564978557753 0.00020896630860653165
0.1302017719 -0.1003156006 -0.001456058796238878 0.00020140818393275277
0.1355232298 -0.1003156006 -0.0014736658976636477 0.00019278745786293524
0.1408446878 -0.1003156006 -0.0014887163762284915 0.0001833049627592313
0.1461661458 -0.1003156006 -0.0015033270726848946 0.00017404778050029402
0.1514876038 -0.1003156006 -0.001518237649746501 0.00016480073578182823
0.1568090618 -0.1003156006 -0.0015331577093384953 0.00015554080234712287
0.1621305197 -0.1003156006 -0.001547788977667246 0.00014632489266325235
0.1674519777 -0.1003156006 -0.001562623641920169 0.00013433084016436727
0.1727734357 -0.1003156006 -0.0015778532135882586 0.00012084925984016527
0.1780948937 -0.1003156006 -0.0015931520669003117 0.00010737999018693488
0.1834163517 -0.1003156006 -0.0016081977764273803 9.390803037939875e-05
0.1887378097 -0.1003156006 -0.001622728100202594 8.056746124088701e-05
0.1940592676 -0.1003156006 -0.0016362633531015265 6.730441158480644e-05
0.1993807256 -0.1003156006 -0.0016416857526825972 4.2461431042497904e-05
0.2047021836 -0.1003156006 -0.0016440401389151043 1.3861554432223598e-05
0.2100236416 -0.1003156006 -0.0016465382117198599 -1.4704594819543831e-05
0.2153450996 -0.1003156006 -0.00164797814957387 -4.0995381473631685e-05
0.2206665576 -0.1003156006 -0.00164965653166901 -6.813868903022565e-05
0.2259880155 -0.1003156006 -0.0016514661254968027 -9.52916274414767e-05
0.2313094735 -0.1003156006 -0.0016272020050588593 -0.00011676145853792644
0.2366309315 -0.1003156006 -0.0015968540703724732 -0.00013484127276689795
0.2419523895 -0.1003156006 -0.001566872217209863 -0.00015216185228972815
0.2472738475 -0.1003156006 -0.0015370974332349476 -0.00016951069301893913
0.2525953054 -0.1003156006 -0.0015068191617811015 -0.00018695196918314894
0.2579167783 -0.1003156006 -0.0014776293371520663 -0.00020334202028548737
0.2632382214 -0.1003156006 -0.0014416411180012312 -0.00019235136928479296
0.2685596943 -0.1003156006 -0.0014033555864336666 -0.00017450710751893618
0.2738811374 -0.1003156006 -0.0013645184980771562 -0.0001562025115896076
0.2792026103 -0.1003156006 -0.0013262889200644885 -0.00013830820861646356
0.2845240533 -0.1003156006 -0.0012899421881967534 -0.00012105327249278884
0.2898455262 -0.1003156006 -0.0012538884206979375 -0.00010382116755654544
0.2951669693 -0.1003156006 -0.0012345503518314555 -7.099547226189239e-05
0.3004884422 -0.1003156006 -0.0012180393923090218 -3.605579187177091e-05
0.3058098853 -0.1003156006 -0.001201917414996761 -2.9087537782536455e-06
0.3111313581 -0.1003156006 -0.0011859217297714578 3.0239265121662518e-05
0.3164528012 -0.1003156006 -0.0011700711724298802 6.339813732605385e-05
0.3217742741 -0.1003156006 -0.0011541263575927936 9.659504362254109e-05
0.3270957172 -0.1003156006 -0.0011551394189985562 0.0001287086880198611
0.3324171901 -0.1003156006 -0.001156269416289945 0.0001607666237676605
0.3377386332 -0.1003156006 -0.0011571850176697142 0.00019281675225784996
0.343060106 -0.1003156006 -0.0011584520297051853 0.0002248770068680768
0.3483815491 -0.1003156006 -0.0011589245845718755 0.00025539883157210083
0.353703022 -0.1003156006 -0.0011631489966731818 0.00028337622127502034
0.3590244651 -0.1003156006 -0.001175173984712522 0.0003060102214487148
0.364345938 -0.1003156006 -0.0011875168261878152 0.0003286890604086291
0.369667381 -0.1003156006 -0.0011979528404233305 0.00035049114981729234
0.3749888539 -0.1003156006 -0.0012089378984276933 0.0003725991743540496
0.380310297 -0.1003156006 -0.0012200588800362541 0.00039470046716595224
0.3856317699 -0.1003156006 -0.0012319663590185845 0.00040516333938971793
0.390953213 -0.1003156006 -0.001243052242681664 0.00041270946955165297
0.3962746859 -0.1003156006 -0.0012536805852371323 0.000420415862648185
0.4015961289 -0.1003156006 -0.0012640665130735384 0.00042821165121040923
0.4069176018 -0.1003156006 -0.0012747430315119157 0.0004361322191627732
0.4122390449 -0.1003156006 -0.0012806895507563327 0.00044200622196917936
0.4175605178 -0.1003156006 -0.0012805491935720939 0.000443638862831503
0.4228819609 -0.1003156006 -0.0012804428319966466 0.0004449145451735407
0.4282034338 -0.1003156006 -0.001280293312743854 0.0004462454906035492
0.4335248768 -0.1003156006 -0.0012802616080010603 0.00044878487922878416
0.4388463497 -0.1003156006 -0.0012786999305642833 0.00045224922079318045
0.4441677928 -0.1003156006 -0.0012713500085595809 0.0004580355160381523
0.4494892657 -0.1003156006 -0.0012642421110571568 0.0004638241052367697
0.4548107088 -0.1003156006 -0.0012580834268254848 0.0004698258443082854
0.4601321816 -0.1003156006 -0.0012513288122570365 0.0004757706594766127
0.4654536247 -0.1003156006 -0.001245069029101019 0.00048307647091155653
0.4707750976 -0.1003156006 -0.001239613577797191 0.0004923698169310344
0.4760965407 -0.1003156006 -0.0012344858993617357 0.0005014035611230276
0.4814180136 -0.1003156006 -0.0012293432911518022 0.0005104305371163963
0.4867394567 -0.1003156006 -0.0012241595323289381 0.0005194763129263313
0.4920609295 -0.1003156006 -0.0012209139255538208 0.0005268624849087544
0.4973823726 -0.1003156006 -0.0012181981835684855 0.0005338825774404972
0.5027038455 -0.1003156006 -0.0012162722098645199 0.0005408148253389085
0.5080252886 -0.1003156006 -0.001214274621964668 0.0005477480617567494
0.5133467317 -0.1003156006 -0.0012115567730076606 0.0005530516046210071
0.5186682343 -0.1003156006 -0.0012078414015989616 0.0005558916492259276
0.5239896774 -0.1003156006 -0.0012041582805140038 0.0005587452752363472
0.5293111205 -0.1003156006 -0.0012006368544132454 0.0005617094641859749
0.5346325636 -0.1003156006 -0.0011956620252207436 0.000564111958184691
0.5399540663 -0.1003156006 -0.0011883529834347151 0.0005646199693142594
0.5452755094 -0.1003156006 -0.0011808517135636983 0.0005648646973016829
0.5505969524 -0.1003156006 -0.0011735281485608763 0.0005656985904428684
0.5559183955 -0.1003156006 -0.0011635845320599942 0.0005671140972663732
0.5612398982 -0.1003156006 -0.0011518467576665113 0.0005677121981518288
0.5665613413 -0.1003156006 -0.0011398447279674948 0.0005684550438312487
0.5718827844 -0.1003156006 -0.0011276132403735095 0.0005705148325249894
0.5772042274 -0.1003156006 -0.001111860677443733 0.0005726303941840488
0.5825257301 -0.1003156006 -0.0010960859019075357 0.0005746874523713298
0.5878471732 -0.1003156006 -0.0010799290756651507 0.0005776213569779836
0.5931686163 -0.1003156006 -0.0010612621738919558 0.0005805613462887972
0.5984900594 -0.1003156006 -0.0010432780377677487 0.0005835693250662702
0.6038115621 -0.1003156006 -0.0010235040623260195 0.0005870819021064558
0.6091330051 -0.1003156006 -0.0010039905948940673 0.0005908894549382839
0.6144544482 -0.1003156006 -0.0009819035405829093 0.000594985813830648
0.6197758913 -0.1003156006 -0.0009593915037705994 0.0005998940067141465
0.625097394 -0.1003156006 -0.0009360973414824223 0.0006050889953356162
0.6304188371 -0.1003156006 -0.0009110997987454888 0.0006108856042724886
0.6357402802 -0.1003156006 -0.0008857210085520974 0.0006174340104842262
0.6410617828 -0.1003156006 -0.0008593112124674959 0.0006240155467684031
0.6463832259 -0.1003156006 -0.0008319977514875395 0.0006307779064971511
0.651704669 -0.1003156006 -0.0008041399236009515 0.0006375224206893278
0.6570261121 -0.1003156006 -0.0007750136589322542 0.0006449370329534251
0.6623476148 -0.1003156006 -0.0007441630462139127 0.0006521879856186344
0.6676690578 -0.1003156006 -0.0007125665541045025 0.0006592950431352203
0.6729905009 -0.1003156006 -0.0006781516925339931 0.0006664246441746032
0.678311944 -0.1003156006 -0.0006427298624165782 0.0006738514866972557
0.6836334467 -0.1003156006 -0.0006055569272153213 0.0006808915599593237
0.6889548898 -0.1003156006 -0.0005651337830712744 0.0006879469453078318
0.6942763329 -0.1003156006 -0.0005216726321422344 0.0006948269159244929
0.6995977759 -0.1003156006 -0.00047530896934206936 0.0007017933324737557
0.7049192786 -0.1003156006 -0.0004261674704446789 0.0007100417920623211
0.7102407217 -0.1003156006 -0.00037323827928743955 0.0007183599249734313
0.7155621648 -0.1003156006 -0.0003149760549005955 0.0007287035887935251
0.7208836079 -0.1003156006 -0.0002525662631100234 0.0007410328630561825
0.7262051105 -0.1003156006 -0.00018588058716534697 0.0007555706576065264
0.7315265536 -0.1003156006 -0.00011401904437362093 0.0007736680038340531
0.7368479967 -0.1003156006 -3.5785898418329305e-05 0.0007970087632199496
0.7421694398 -0.1003156006 4.7345516440914984e-05 0.0008245381805631643
0.7474909425 -0.1003156006 0.00013155117293598006 0.0008581563545881986
0.7528123856 -0.1003156006 0.0002217919822398839 0.0008995465863772671
0.7581338286 -0.1003156006 0.000315913965725482 0.0009493880844421128
-0.3008363545 -0.09699654579 -0.00030687362981181933 -0.0008823020632342909
-0.2955148816 -0.09699654579 -0.00029412651200265536 -0.0008948460353544191
-0.2901934385 -0.09699654579 -0.00028845608196605203 -0.0009030601436150188
-0.2848719656 -0.09699654579 -0.0002980741126241572 -0.0009047867936685281
-0.2795505226 -0.09699654579 -0.00030893370603136147 -0.0009080628237950493
-0.2742290497 -0.09699654579 -0.00031575686358994905 -0.0009156987695633579
-0.2689076066 -0.09699654579 -0.0003182224179988009 -0.0009319485435121492
-0.2635861337 -0.09699654579 -0.0003150842874470951 -0.0009490130485961974
-0.2582646906 -0.09699654579 -0.00029857431878188415 -0.0009573069416406069
-0.2529432178 -0.09699654579 -0.0002843283047227737 -0.0009583486264653592
-0.2476217598 -0.09699654579 -0.00026833927873979685 -0.000950097225063475
-0.2423003018 -0.09699654579 -0.0002375284832566108 -0.0009279676600899332
-0.2369788438 -0.09699654579 -0.0001652347831214228 -0.0008791381727945398
-0.2316573858 -0.09699654579 -8.09419771272639e-05 -0.0008175590877496032
-0.2263359278 -0.09699654579 1.5982909906816706e-05 -0.0007510876993270625
-0.2210144699 -0.09699654579 2.022528481785922e-05 -0.0007012285547030316
-0.2156930119 -0.09699654579 3.877586688281023e-06 -0.0006572215919207639
-0.2103715539 -0.09699654579 -7.965107539626563e-06 -0.0006024840009715407
-0.2050500959 -0.09699654579 -1.3878017458395084e-05 -0.0005546527068846532
-0.1997286379 -0.09699654579 -2.2006713184013035e-05 -0.000499926758819599
-0.19440718 -0.09699654579 -3.249562962108215e-05 -0.0004428029820389926
-0.189085722 -0.09699654579 -4.618578345744033e-05 -0.0003919159460291958
-0.183764264 -0.09699654579 -5.793096347118848e-05 -0.0003454297264018092
-0.178442806 -0.09699654579 -6.947174875583947e-05 -0.00030351548614471674
-0.173121348 -0.09699654579 -8.985201243545357e-05 -0.0002728527513953777
-0.16779989 -0.09699654579 -0.00011429083904484432 -0.0002491982954904037
-0.1624784321 -0.09699654579 -0.00013904677601040777 -0.0002247298456267845
-0.1571569741 -0.09699654579 -0.00017690934935267387 -0.00018232579130681491
-0.1518355161 -0.09699654579 -0.00022041625326042717 -0.00013443948203481512
-0.1465140581 -0.09699654579 -0.00026689097373907027 -8.645676445310661e-05
-0.1411926001 -0.09699654579 -0.00031147421537832786 -4.6920131826439316e-05
-0.1358711421 -0.09699654579 -0.00035129459637810016 -3.202297209916644e-05
-0.1305496842 -0.09699654579 -0.0003912813893845959 -1.9282946090922845e-05
-0.1252282262 -0.09699654579 -0.0004314770348495441 -6.487164037222697e-06
-0.1199067682 -0.09699654579 -0.00045771603204437154 -4.56905031940942e-06
-0.1145853102 -0.09699654579 -0.0004801429651721995 -5.0124819343715914e-06
-0.1092638522 -0.09699654579 -0.000502849070708351 -5.20846629571897e-06
-0.1039423943 -0.09699654579 -0.000526358079222663 -4.905193178432349e-06
-0.09862093627 -0.09699654579 -0.0005575439929568623 6.983243705682112e-06
-0.09329947084 -0.09699654579 -0.0005898324057386515 1.9172799470140766e-05
-0.08797801286 -0.09699654579 -0.0006235760704773133 3.168296462990079e-05
-0.08265655488 -0.09699654579 -0.0006560073000542379 4.369583486846927e-05
-0.0773350969 -0.09699654579 -0.0006839066499880475 5.151475654443577e-05
-0.07201363891 -0.09699654579 -0.0007121816054174676 5.853218137621049e-05
-0.06669218093 -0.09699654579 -0.0007408461661446089 6.555213961727562e-05
-0.06137072667 -0.09699654579 -0.0007708828925523484 7.263709512515774e-05
-0.05604926869 -0.09699654579 -0.0007928635944225456 7.603254492506402e-05
-0.05072781071 -0.09699654579 -0.0008126403528899847 7.908168624863165e-05
-0.045406349 -0.09699654579 -0.000832645670840397 8.213066671357271e-05
-0.04008489102 -0.09699654579 -0.0008526093037882458 8.495865840936179e-05
-0.03476343304 -0.09699654579 -0.0008718987467947049 8.760398419860964e-05
-0.02944197692 -0.09699654579 -0.0008897265748379855 9.040193367531055e-05
-0.02412051894 -0.09699654579 -0.0009073843222703786 9.32479515247372e-05
-0.01879905909 -0.09699654579 -0.0009251364634500322 9.606641030945751e-05
-0.01347760204 -0.09699654579 -0.0009433441218067755 9.879948097267213e-05
-0.00815614406 -0.09699654579 -0.0009588389929402131 0.0001027749931550076
-0.00283468538 -0.09699654579 -0.0009724965865693102 0.0001077577254539826
0.002486772602 -0.09699654579 -0.0009864738889740251 0.0001126728159576834
0.007808230817 -0.09699654579 -0.0010001425199423492 0.00011759031873649318
0.0131296888 -0.09699654579 -0.0010139330565804522 0.00012254025977365447
0.01845114678 -0.09699654579 -0.0010277651779847393 0.00013135314843105435
0.02377260476 -0.09699654579 -0.001041881752647147 0.0001430508779732133
0.02909406275 -0.09699654579 -0.0010558074332864887 0.00015488396537129072
0.03441552073 -0.09699654579 -0.0010697674327021015 0.00016677448089223273
0.03973697871 -0.09699654579 -0.0010839939636505236 0.00017844670818931732
0.04505843669 -0.09699654579 -0.0010999176513100677 0.00018974884728598055
0.05037989467 -0.09699654579 -0.0011210430672794 0.00020078007355128207
0.05570135266 -0.09699654579 -0.0011419562668773997 0.00021180832647501964
0.06102281436 -0.09699654579 -0.0011631515363727924 0.0002230847185864817
0.06634426862 -0.09699654579 -0.0011841688782139842 0.00023406344118679813
0.0716657266 -0.09699654579 -0.0012051526293329424 0.0002450451732329066
0.07698718458 -0.09699654579 -0.0012325404147276666 0.0002475379466616667
0.08230864257 -0.09699654579 -0.0012602705566410464 0.0002495395560338334
0.08763010055 -0.09699654579 -0.0012876441140348882 0.00025150893072355146
0.09295155853 -0.09699654579 -0.001315025443613446 0.000253583048404956
0.09827301651 -0.09699654579 -0.0013425259783082296 0.00025560358450459183
0.1035944745 -0.09699654579 -0.0013679556873054772 0.0002538463827567909
0.1089159325 -0.09699654579 -0.0013896213573129756 0.00024541129402419715
0.1142373979 -0.09699654579 -0.0014112900727000603 0.00023717523415817544
0.1195588559 -0.09699654579 -0.0014323765039900187 0.0002292494185384116
0.1248803139 -0.09699654579 -0.0014533035247075042 0.00022133557197392332
0.1302017719 -0.09699654579 -0.0014749366663287349 0.00021308240003073406
0.1355232298 -0.09699654579 -0.001491282944644461 0.00020415411984635589
0.1408446878 -0.09699654579 -0.0015045855940952224 0.00019456432296104155
0.1461661458 -0.09699654579 -0.001518069531170255 0.00018508827404621175
0.1514876038 -0.09699654579 -0.001533183950797346 0.0001755337382391996
0.1568090618 -0.09699654579 -0.0015482861300057176 0.00016598934684587397
0.1621305197 -0.09699654579 -0.0015632462329858768 0.00015642248613332527
0.1674519777 -0.09699654579 -0.001578733014526167 0.0001441211282983107
0.1727734357 -0.09699654579 -0.0015944328782568843 0.00013056316059987215
0.1780948937 -0.09699654579 -0.0016111864357970709 0.00011700224172167842
0.1834163517 -0.09699654579 -0.0016274242222055037 0.00010348687950940632
0.1887378097 -0.09699654579 -0.0016421630454181901 8.980651897586265e-05
0.1940592676 -0.09699654579 -0.0016573192819122832 7.611316144526168e-05
0.1993807256 -0.09699654579 -0.0016630476831237986 4.734670533796235e-05
0.2047021836 -0.09699654579 -0.0016664912115852161 1.4498625799452583e-05
0.2100236416 -0.09699654579 -0.0016681256972710602 -1.578538844182265e-05
0.2153450996 -0.09699654579 -0.0016699079340619313 -4.585554632066146e-05
0.2206665576 -0.09699654579 -0.0016714317111133402 -7.592336111630167e-05
0.2259880155 -0.09699654579 -0.0016731840122385716 -0.00010605069894867928
0.2313094735 -0.09699654579 -0.0016467831992229161 -0.00012909444929607735
0.2366309315 -0.09699654579 -0.0016139082514127628 -0.00014965618618520388
0.2419523895 -0.09699654579 -0.0015811919455798234 -0.0001702262920194599
0.2472738475 -0.09699654579 -0.0015486372584568927 -0.00019077263383158403
0.2525953054 -0.09699654579 -0.001517123470168123 -0.0002101651360835338
0.2579167783 -0.09699654579 -0.001486372565653627 -0.00022840679473005312
0.2632382214 -0.09699654579 -0.0014470270599016438 -0.00021531468636562631
0.2685596943 -0.09699654579 -0.001406084208799865 -0.00019568401101026391
0.2738811374 -0.09699654579 -0.0013661733407127608 -0.0001767285959476915
0.2792026103 -0.09699654579 -0.0013275822159934422 -0.0001583021968956204
0.2845240533 -0.09699654579 -0.00128882502677824 -0.00013991318536022579
0.2898455262 -0.09699654579 -0.0012494023912517967 -0.00012104284294826936
0.2951669693 -0.09699654579 -0.0012306838581289583 -8.559726521243373e-05
0.3004884422 -0.09699654579 -0.0012147298353007228 -4.950466087371668e-05
0.3058098853 -0.09699654579 -0.0011981578697355824 -1.3380909788391236e-05
0.3111313581 -0.09699654579 -0.0011815561451131416 2.2734545257847567e-05
0.3164528012 -0.09699654579 -0.0011651522573056826 5.8010852720512706e-05
0.3217742741 -0.09699654579 -0.0011497096150768161 9.216979994354225e-05
0.3270957172 -0.09699654579 -0.0011529897997273905 0.00012606339541330896
0.3324171901 -0.09699654579 -0.0011558482451739728 0.00015995091784091288
0.3377386332 -0.09699654579 -0.0011584765194407067 0.00019332406580777943
0.343060106 -0.09699654579 -0.0011605718234120187 0.00022602114832573084
0.3483815491 -0.09699654579 -0.0011631888816177943 0.00025875991457013654
0.353703022 -0.09699654579 -0.0011701195554944398 0.00028850404079976827
0.3590244651 -0.09699654579 -0.0011847134246888188 0.00031213521417936717
0.364345938 -0.09699654579 -0.0011979556943949024 0.0003350281414841027
0.369667381 -0.09699654579 -0.0012113287114028266 0.00035793541430158976
0.3749888539 -0.09699654579 -0.0012239094611540522 0.00038095695547618683
0.380310297 -0.09699654579 -0.001236299066093524 0.0004036408845737665
0.3856317699 -0.09699654579 -0.0012481619752292808 0.0004135330219843545
0.390953213 -0.09699654579 -0.0012607495747524722 0.0004200002020298623
0.3962746859 -0.09699654579 -0.0012737857547305792 0.00042622877604474644
0.4015961289 -0.09699654579 -0.0012859844865026986 0.0004330212552305699
0.4069176018 -0.09699654579 -0.001297109014064897 0.00044026761762638574
0.4122390449 -0.09699654579 -0.0013033344672831115 0.0004442226601379743
0.4175605178 -0.09699654579 -0.0013025696995033291 0.0004438590842313289
0.4228819609 -0.09699654579 -0.0013020013493436795 0.0004446591679534694
0.4282034338 -0.09699654579 -0.001301416877121433 0.00044594525643043987
0.4335248768 -0.09699654579 -0.0013007778148002155 0.0004469753250490115
0.4388463497 -0.09699654579 -0.0012974242003146407 0.00044899292719153573
0.4441677928 -0.09699654579 -0.001289003379055621 0.0004546283324970721
0.4494892657 -0.09699654579 -0.0012804853942730578 0.000460330806901851
0.4548107088 -0.09699654579 -0.001272347831186315 0.0004659576107519692
0.4601321816 -0.09699654579 -0.001264447908659606 0.00047155105888838306
0.4654536247 -0.09699654579 -0.0012581489695584664 0.0004789476403719364
0.4707750976 -0.09699654579 -0.0012521951649532063 0.0004884798060191229
0.4760965407 -0.09699654579 -0.0012460779147721584 0.0004982998937247752
0.4814180136 -0.09699654579 -0.0012402061892408476 0.0005078429634664592
0.4867394567 -0.09699654579 -0.0012346825404304478 0.0005171807090894474
0.4920609295 -0.09699654579 -0.0012316476469468763 0.0005247308664157414
0.4973823726 -0.09699654579 -0.0012293025516519635 0.000531840226653396
0.5027038455 -0.09699654579 -0.0012268608386164735 0.0005387085143052746
0.5080252886 -0.09699654579 -0.0012243496177997619 0.0005457644059601336
0.5133467317 -0.09699654579 -0.00122111234677029 0.0005506560209588543
0.5186682343 -0.09699654579 -0.0012173959563502542 0.0005530280591861896
0.5239896774 -0.09699654579 -0.0012131927456628022 0.0005558882548757261
0.5293111205 -0.09699654579 -0.0012090912338837152 0.0005584673317890439
0.5346325636 -0.09699654579 -0.0012033363361814607 0.0005596139708345542
0.5399540663 -0.09699654579 -0.001194991153083236 0.0005595543306719681
0.5452755094 -0.09699654579 -0.0011873208343460189 0.000559839156241765
0.5505969524 -0.09699654579 -0.0011791877509463012 0.0005597660373107922
0.5559183955 -0.09699654579 -0.0011677663538151458 0.0005595283970826559
0.5612398982 -0.09699654579 -0.0011559745342784597 0.0005600910886694592
0.5665613413 -0.09699654579 -0.001143878440945579 0.000560586746913168
0.5718827844 -0.09699654579 -0.001130106750864264 0.0005608328646922543
0.5772042274 -0.09699654579 -0.0011146333024892906 0.0005625703185304036
0.5825257301 -0.09699654579 -0.0010990559451094402 0.0005643022321175435
0.5878471732 -0.09699654579 -0.0010815596464440536 0.0005658721825113136
0.5931686163 -0.09699654579 -0.0010631509205912026 0.0005685378571317099
0.5984900594 -0.09699654579 -0.0010435931980794652 0.0005709204640229176
0.6038115621 -0.09699654579 -0.001023239221431294 0.0005740724558196456
0.6091330051 -0.09699654579 -0.0010011918394905468 0.000577445024810847
0.6144544482 -0.09699654579 -0.0009793475552593027 0.0005812943861416993
0.6197758913 -0.09699654579 -0.0009552726089238132 0.0005858096823186913
0.625097394 -0.09699654579 -0.0009309788488319591 0.0005905898620420527
0.6304188371 -0.09699654579 -0.0009067286785900245 0.0005958133841239542
0.6357402802 -0.09699654579 -0.0008809705744464198 0.0006010623613667439
0.6410617828 -0.09699654579 -0.0008548056427624233 0.0006073089285520762
0.6463832259 -0.09699654579 -0.0008269754427518804 0.0006134784247197506
0.651704669 -0.09699654579 -0.0007982704409490528 0.0006197696198276389
0.6570261121 -0.09699654579 -0.0007683750288220398 0.0006264513178313118
0.6623476148 -0.09699654579 -0.0007374501432039567 0.0006331634816475239
0.6676690578 -0.09699654579 -0.0007058067079159816 0.0006392494714366139
0.6729905009 -0.09699654579 -0.0006720335743743731 0.0006454590877756879
0.678311944 -0.09699654579 -0.0006367319150593182 0.000651071145715331
0.6836334467 -0.09699654579 -0.0006002732074839467 0.0006566703615041011
0.6889548898 -0.09699654579 -0.0005598950502387878 0.0006624004932894269
0.6942763329 -0.09699654579 -0.0005170590736752956 0.000667529873645749
0.6995977759 -0.09699654579 -0.00047098142483476777 0.0006722500442504283
0.7049192786 -0.09699654579 -0.0004215453097522926 0.0006777517094931439
0.7102407217 -0.09699654579 -0.00036778842216004376 0.0006837470180425032
0.7155621648 -0.09699654579 -0.0003080442443577421 0.0006916224608029029
0.7208836079 -0.09699654579 -0.00024384356493336657 0.0007001535552152194
0.7262051105 -0.09699654579 -0.000174260125063182 0.0007113051307434831
0.7315265536 -0.09699654579 -0.00010012570610774852 0.0007267528455646151
0.7368479967 -0.09699654579 -2.0635717391818477e-05 0.0007452912579525583
0.7421694398 -0.09699654579 6.525496663805407e-05 0.0007711079472877212
0.7474909425 -0.09699654579 0.00015532762218171248 0.0008012357944749351
0.7528123856 -0.09699654579 0.0002500625397467159 0.0008407897563336462
0.7581338286 -0.09699654579 0.0003480982365969422 0.0008892375501311385
-0.3008363545 -0.09367749095 -0.00032016400258192155 -0.0008735348939783161
-0.2955148816 -0.09367749095 -0.0003129866026599569 -0.0008860241344576478
-0.2901934385 -0.09367749095 -0.00028709182929634514 -0.000901244032596667
-0.2848719656 -0.09367749095 -0.0002927354841168838 -0.0009082783907920105
-0.2795505226 -0.09367749095 -0.0003024910476486327 -0.0009125065088330884
-0.2742290497 -0.09367749095 -0.0003087849258940064 -0.0009242261033723927
-0.2689076066 -0.09367749095 -0.0003122358242236834 -0.0009404220396049218