VARIABLES = X,Y,phix,phiy
ZONE I=200,J=200,F=POINT 
-0.3008363545 -0.1003156006 0.0007164472367536481 -5.532431020878045e-05
-0.2955148816 -0.1003156006 0.0007240236349412356 -6.427173172840627e-05
-0.2901934385 -0.1003156006 0.0007283058147870164 -7.050460942486253e-05
-0.2848719656 -0.1003156006 0.000733990958275834 -7.86014157002242e-05
-0.2795505226 -0.1003156006 0.0007400600033578478 -8.781629080913823e-05
-0.2742290497 -0.1003156006 0.0007542561931352091 -9.807778247593991e-05
-0.2689076066 -0.1003156006 0.0007742761548510674 -0.00010953609800635145
-0.2635861337 -0.1003156006 0.0007876666174603683 -0.00011973528400171672
-0.2582646906 -0.1003156006 0.0008080062709507451 -0.00013182676511027302
-0.2529432178 -0.1003156006 0.0008427938116215528 -0.00014552679604858907
-0.2476217598 -0.1003156006 0.0008819085142836672 -0.00016164289952485655
-0.2423003018 -0.1003156006 0.0009047820754131069 -0.00017511071920587898
-0.2369788438 -0.1003156006 0.0009144452830383379 -0.00018941224565963667
-0.2316573858 -0.1003156006 0.0009182047923281715 -0.00020326810667377384
-0.2263359278 -0.1003156006 0.0009302185684376575 -0.00021802456650652424
-0.2210144699 -0.1003156006 0.0009396166807194313 -0.0002303610633853951
-0.2156930119 -0.1003156006 0.0009486160016273915 -0.0002407654324099825
-0.2103715539 -0.1003156006 0.0009656513787975071 -0.0002524231286050293
-0.2050500959 -0.1003156006 0.0009883983066664378 -0.0002459681464593718
-0.1997286379 -0.1003156006 0.0010061182586882966 -0.0002367138829970873
-0.19440718 -0.1003156006 0.0010343207004405355 -0.0002306773655713938
-0.189085722 -0.1003156006 0.0010535449769620033 -0.00021337830338173433
-0.183764264 -0.1003156006 0.0010755519094893832 -0.00019366677682817755
-0.178442806 -0.1003156006 0.0010970644480276907 -0.0001783009310529622
-0.173121348 -0.1003156006 0.001100088641342148 -0.0001559816582036228
-0.16779989 -0.1003156006 0.0011015053280983447 -0.00013611863679361904
-0.1624784321 -0.1003156006 0.0010961153706423063 -0.00010499813495322167
-0.1571569741 -0.1003156006 0.0010894855472399516 -8.31864841698964e-05
-0.1518355161 -0.1003156006 0.0010816076232616823 -6.42050299830212e-05
-0.1465140581 -0.1003156006 0.0010729565673730937 -4.45288229335906e-05
-0.1411926001 -0.1003156006 0.0010629793826123645 -2.973750719950746e-05
-0.1358711421 -0.1003156006 0.0010491171965166118 -2.2503990730222448e-05
-0.1305496842 -0.1003156006 0.0010352833867022847 -1.5268937759978604e-05
-0.1252282262 -0.1003156006 0.0010187176911969596 -8.607998699162298e-06
-0.1199067682 -0.1003156006 0.0010043675512270425 -2.761133202974499e-06
-0.1145853102 -0.1003156006 0.0009912659252451618 3.6706581048534373e-06
-0.1092638522 -0.1003156006 0.0009774409130756424 9.438359437493665e-06
-0.1039423943 -0.1003156006 0.0009641257012836575 1.4594505614160582e-05
-0.09862093627 -0.1003156006 0.0009563118921490002 1.570605902263276e-05
-0.09329947084 -0.1003156006 0.0009488782583872273 1.668780487139103e-05
-0.08797801286 -0.1003156006 0.0009414745065796158 1.7654878660213887e-05
-0.08265655488 -0.1003156006 0.0009351873952035485 1.8005654095403615e-05
-0.0773350969 -0.1003156006 0.0009290698960826389 1.662977220587778e-05
-0.07201363891 -0.1003156006 0.0009227841973431378 1.5200072998538946e-05
-0.06669218093 -0.1003156006 0.0009164201771440333 1.3772175233416093e-05
-0.06137072667 -0.1003156006 0.0009100321881562744 1.2343517126990906e-05
-0.05604926869 -0.1003156006 0.0009054200881811494 1.0071267201773805e-05
-0.05072781071 -0.1003156006 0.0009011819205295382 8.060259444498151e-06
-0.045406349 -0.1003156006 0.0008968006452744583 6.125617325021445e-06
-0.04008489102 -0.1003156006 0.0008924092329595715 3.957198101535061e-06
-0.03476343304 -0.1003156006 0.0008885868894283869 2.4725975712200524e-06
-0.02944197692 -0.1003156006 0.0008843693231679159 3.430627153449119e-06
-0.02412051894 -0.1003156006 0.0008801639806618176 4.542544670096274e-06
-0.01879905909 -0.1003156006 0.0008761312708506708 5.876647336447959e-06
-0.01347760204 -0.1003156006 0.0008720158240742961 6.960822123545162e-06
-0.00815614406 -0.1003156006 0.0008641748477621867 6.467597036075167e-06
-0.00283468538 -0.1003156006 0.0008534832315719923 5.133687225182617e-06
0.002486772602 -0.1003156006 0.0008427366769451154 3.997659202135314e-06
0.007808230817 -0.1003156006 0.0008316252587494183 2.871048924765298e-06
0.0131296888 -0.1003156006 0.0008209506258018704 1.571186892281817e-06
0.01845114678 -0.1003156006 0.0008117254290561228 -6.424607132719307e-06
0.02377260476 -0.1003156006 0.0008035638672929812 -1.941245497087432e-05
0.02909406275 -0.1003156006 0.0007950370141688129 -3.300618515863007e-05
0.03441552073 -0.1003156006 0.0007863910765861603 -4.660270916975554e-05
0.03973697871 -0.1003156006 0.0007779863503772628 -5.96633889296284e-05
0.04505843669 -0.1003156006 0.0007757183126391617 -7.27797858905719e-05
0.05037989467 -0.1003156006 0.0007838298877286536 -8.62452584124671e-05
0.05570135266 -0.1003156006 0.0007926358369889937 -0.00010048175020255248
0.06102281436 -0.1003156006 0.0008012783800321501 -0.00011480369010853017
0.06634426862 -0.1003156006 0.0008096812645129796 -0.00012853525125820794
0.0716657266 -0.1003156006 0.0008176389186402226 -0.00014185808933554072
0.07698718458 -0.1003156006 0.0008262005913616012 -0.0001375884244769612
0.08230864257 -0.1003156006 0.0008351602255682598 -0.00013180233237195397
0.08763010055 -0.1003156006 0.0008444235771612744 -0.0001255402795301403
0.09295155853 -0.1003156006 0.0008533504437882187 -0.00011978167282166428
0.09827301651 -0.1003156006 0.0008618817881066435 -0.00011431223404377766
0.1035944745 -0.1003156006 0.0008644316739094396 -0.00010952680752558951
0.1089159325 -0.1003156006 0.0008546405501799534 -0.00010628474842647187
0.1142373979 -0.1003156006 0.0008449381282614137 -0.00010303759694143252
0.1195588559 -0.1003156006 0.0008359721110582564 -0.00010089744581674942
0.1248803139 -0.1003156006 0.0008267779482243523 -9.836142433011349e-05
0.1302017719 -0.1003156006 0.0008172658606410886 -9.556904653991907e-05
0.1355232298 -0.1003156006 0.0008034697768689267 -0.0001055862701424542
0.1408446878 -0.1003156006 0.0007867569680243326 -0.00012476323486449237
0.1461661458 -0.1003156006 0.000771762883717218 -0.00014325543399059358
0.1514876038 -0.1003156006 0.000757063386487063 -0.0001617527017513045
0.1568090618 -0.1003156006 0.0007417409004373538 -0.0001802453874047798
0.1621305197 -0.1003156006 0.0007269073490541814 -0.0001987570535111457
0.1674519777 -0.1003156006 0.0007296247237486024 -0.00022285225712699662
0.1727734357 -0.1003156006 0.0007392664771610201 -0.00024929077392918955
0.1780948937 -0.1003156006 0.0007491813660727127 -0.0002757269013956344
0.1834163517 -0.1003156006 0.0007589223489818038 -0.00030216111198875346
0.1887378097 -0.1003156006 0.0007683093273362263 -0.00032805210996309555
0.1940592676 -0.1003156006 0.0007773921677346614 -0.0003526209020625393
0.1993807256 -0.1003156006 0.0008053355616210582 -0.00036825097156678485
0.2047021836 -0.1003156006 0.000838994211179736 -0.0003808024754267983
0.2100236416 -0.1003156006 0.0008723677750542483 -0.0003935167883044103
0.2153450996 -0.1003156006 0.0009038302369241173 -0.0004055838085894462
0.2206665576 -0.1003156006 0.0009362084635581325 -0.0004176266396523719
0.2259880155 -0.1003156006 0.0009684190220843523 -0.0004296971540692632
0.2313094735 -0.1003156006 0.0009996226179010937 -0.0004251553769679896
0.2366309315 -0.1003156006 0.0010296997920050917 -0.0004161310234517418
0.2419523895 -0.1003156006 0.0010590383451263338 -0.0004070197928292171
0.2472738475 -0.1003156006 0.0010886178789182596 -0.00039791553222582677
0.2525953054 -0.1003156006 0.0011186223749127104 -0.00038894666744760796
0.2579167783 -0.1003156006 0.001147671986557874 -0.00038037350058388905
0.2632382214 -0.1003156006 0.001169531765832728 -0.00036201393142941965
0.2685596943 -0.1003156006 0.0011901436106106188 -0.00034110733620379343
0.2738811374 -0.1003156006 0.0012108548607517695 -0.0003200840720090988
0.2792026103 -0.1003156006 0.001231522913388057 -0.00029914526716739336
0.2845240533 -0.1003156006 0.0012508379059350187 -0.00027884257855352357
0.2898455262 -0.1003156006 0.0012700245977863255 -0.00025853033258975417
0.2951669693 -0.1003156006 0.0012814531422893941 -0.0002250858863722202
0.3004884422 -0.1003156006 0.00129143404158852 -0.00018966801501816045
0.3058098853 -0.1003156006 0.0012992887730958668 -0.00015615109160601874
0.3111313581 -0.1003156006 0.0013076837296023818 -0.00012258124327676437
0.3164528012 -0.1003156006 0.001315723997853083 -8.903698871833634e-05
0.3217742741 -0.1003156006 0.0013233963726815344 -5.53413517125665e-05
0.3270957172 -0.1003156006 0.0013110258838914047 -1.6601976559214268e-05
0.3324171901 -0.1003156006 0.0012983574411849165 2.2296239536363212e-05
0.3377386332 -0.1003156006 0.0012859196138653502 6.120548900347143e-05
0.343060106 -0.1003156006 0.0012732018821698889 0.00010005080041417966
0.3483815491 -0.1003156006 0.0012601966318400355 0.00013647120003662172
0.353703022 -0.1003156006 0.001240633620328675 0.00017196540095214342
0.3590244651 -0.1003156006 0.0012050457573476252 0.00020603093464081882
0.364345938 -0.1003156006 0.0011697039080085449 0.00024005280479794802
0.369667381 -0.1003156006 0.0011344564857116936 0.00027104215816972285
0.3749888539 -0.1003156006 0.001098939350956776 0.0003027753156468899
0.380310297 -0.1003156006 0.001063548274121806 0.0003349025170295053
0.3856317699 -0.1003156006 0.0010051580434649497 0.00035925450483638015
0.390953213 -0.1003156006 0.0009424922948461059 0.0003770046002943201
0.3962746859 -0.1003156006 0.0008795837190669276 0.00039431953255857164
0.4015961289 -0.1003156006 0.0008171218391754652 0.0004119404616636333
0.4069176018 -0.1003156006 0.0007544582827871523 0.00042982651935802204
0.4122390449 -0.1003156006 0.0006865231842838907 0.0004295834925654736
0.4175605178 -0.1003156006 0.0006047414551736962 0.0004072482765133796
0.4228819609 -0.1003156006 0.000521302477722451 0.0003852548121340183
0.4282034338 -0.1003156006 0.0004375917588404372 0.0003630860926588563
0.4335248768 -0.1003156006 0.00036072690875069374 0.00034050931664018934
0.4388463497 -0.1003156006 0.0002868226423818901 0.00030552051638754946
0.4441677928 -0.1003156006 0.00022157617698863669 0.00023692644418467254
0.4494892657 -0.1003156006 0.00015684808744604827 0.00016887415778019685
0.4548107088 -0.1003156006 9.62837580524276e-05 0.00010375645014860649
0.4601321816 -0.1003156006 3.354408141234281e-05 3.7029930941201874e-05
0.4654536247 -0.1003156006 -1.411657994244291e-05 -4.025939389139031e-05
0.4707750976 -0.1003156006 -3.675231445248742e-05 -0.0001319375017884725
0.4760965407 -0.1003156006 -5.861460794447019e-05 -0.00021901673700336496
0.4814180136 -0.1003156006 -8.0098189709475e-05 -0.00030608834961414925
0.4867394567 -0.1003156006 -0.00010217252889816768 -0.0003935900407351293
0.4920609295 -0.1003156006 -9.295311312635823e-05 -0.0004812813289751055
0.4973823726 -0.1003156006 -7.566530687742815e-05 -0.000566622413440012
0.5027038455 -0.1003156006 -5.778165962376852e-05 -0.0006519829495306528
0.5080252886 -0.1003156006 -4.0573056277169136e-05 -0.0007373619196170563
0.5133467317 -0.1003156006 -1.3068179839217873e-05 -0.0008105318296058795
0.5186682343 -0.1003156006 3.0785777744938165e-05 -0.000877525723368855
0.5239896774 -0.1003156006 7.441630366174008e-05 -0.0009445150294697416
0.5293111205 -0.1003156006 0.00011725144019771386 -0.0010107079677336259
0.5346325636 -0.1003156006 0.00016250492966616884 -0.0010652904881570603
0.5399540663 -0.1003156006 0.0002166202485470975 -0.0011093569373406655
0.5452755094 -0.1003156006 0.00027181836973905427 -0.0011536181360642466
0.5505969524 -0.1003156006 0.0003243922571884749 -0.0011973718164282846
0.5559183955 -0.1003156006 0.0003759558419023515 -0.0012272512381246996
0.5612398982 -0.1003156006 0.00043140946419353165 -0.001251846801750905
0.5665613413 -0.1003156006 0.0004861324653374138 -0.0012765907738222452
0.5718827844 -0.1003156006 0.0005352827604800703 -0.0012966563793252606
0.5772042274 -0.1003156006 0.0005832451364078234 -0.0013061960989876134
0.5825257301 -0.1003156006 0.0006309240303322467 -0.0013156251657143315
0.5878471732 -0.1003156006 0.0006736683862939439 -0.0013221556834882432
0.5931686163 -0.1003156006 0.0007115412944077487 -0.0013221090218559826
0.5984900594 -0.1003156006 0.0007511006628389417 -0.0013220580678149428
0.6038115621 -0.1003156006 0.0007817469450111892 -0.0013167326898176285
0.6091330051 -0.1003156006 0.0008101690525966512 -0.0013117705464185554
0.6144544482 -0.1003156006 0.0008320480652422073 -0.0013038345516447388
0.6197758913 -0.1003156006 0.0008485609917891215 -0.0012966662451533455
0.625097394 -0.1003156006 0.000860467353601503 -0.0012906156036905912
0.6304188371 -0.1003156006 0.0008637267094375016 -0.0012854339548715877
0.6357402802 -0.1003156006 0.0008647798218180642 -0.0012839902189306423
0.6410617828 -0.1003156006 0.0008601143168121425 -0.0012849226698764015
0.6463832259 -0.1003156006 0.0008501030832802512 -0.0012886358591691447
0.651704669 -0.1003156006 0.0008356705773459759 -0.001295609110781326
0.6570261121 -0.1003156006 0.0008174565644693348 -0.0013116398242119674
0.6623476148 -0.1003156006 0.0007949054515208092 -0.0013340112656146609
0.6676690578 -0.1003156006 0.000768891681268597 -0.0013613490869930189
0.6729905009 -0.1003156006 0.0007398473887771582 -0.001401231065408346
0.678311944 -0.1003156006 0.0007119450110944942 -0.00144819349703711
0.6836334467 -0.1003156006 0.0006822907222617157 -0.0015037838617019202
0.6889548898 -0.1003156006 0.0006518427839364642 -0.0015733513322541627
0.6942763329 -0.1003156006 0.0006241351800799108 -0.0016534491978991504
0.6995977759 -0.1003156006 0.0005998387042860764 -0.0017454346517912767
0.7049192786 -0.1003156006 0.0005792959191995447 -0.0018479154751251056
0.7102407217 -0.1003156006 0.0005656812545772582 -0.0019666197483227165
0.7155621648 -0.1003156006 0.0005616236122699464 -0.002098685966471221
0.7208836079 -0.1003156006 0.0005693299160347905 -0.002242633869996761
0.7262051105 -0.1003156006 0.0005881813903452394 -0.0024003260641903964
0.7315265536 -0.1003156006 0.0006239549305281517 -0.0025709277749516347
0.7368479967 -0.1003156006 0.0006832404132941639 -0.0027597117294968247
0.7421694398 -0.1003156006 0.0007622018928966036 -0.0029592125681374612
0.7474909425 -0.1003156006 0.0008602529374708238 -0.0031569005721138643
0.7528123856 -0.1003156006 0.0009939685450428349 -0.0033689132486513793
0.7581338286 -0.1003156006 0.0011569482100182015 -0.003588316121678406
-0.3008363545 -0.09699654579 0.0007061558558999751 -5.8177130221138366e-05
-0.2955148816 -0.09699654579 0.0007178443149986427 -6.64928620891369e-05
-0.2901934385 -0.09699654579 0.0007257794802265322 -7.686289534542897e-05
-0.2848719656 -0.09699654579 0.0007312320933682727 -8.544379852747854e-05
-0.2795505226 -0.09699654579 0.0007362510787062061 -9.4547432966982e-05
-0.2742290497 -0.09699654579 0.0007472900306138749 -0.00010456933976559123
-0.2689076066 -0.09699654579 0.0007740429376766246 -0.00011694131076459204
-0.2635861337 -0.09699654579 0.0007932990286572927 -0.0001259629499940437
-0.2582646906 -0.09699654579 0.0008081695348348569 -0.00013553346767408684
-0.2529432178 -0.09699654579 0.0008398307458392176 -0.00015054743868667068
-0.2476217598 -0.09699654579 0.000888166085139555 -0.00016642930007065311
-0.2423003018 -0.09699654579 0.000922982379720128 -0.0001832062688661663
-0.2369788438 -0.09699654579 0.0009180379745782175 -0.0001961971969293356
-0.2316573858 -0.09699654579 0.0009291569752529774 -0.0002104384235737395
-0.2263359278 -0.09699654579 0.0009364438189265906 -0.00022084295612174613
-0.2210144699 -0.09699654579 0.0009405194041219354 -0.00023089587785813482
-0.2156930119 -0.09699654579 0.0009564551550721219 -0.0002431549839470577
-0.2103715539 -0.09699654579 0.0009632152119911882 -0.00025464556321643113
-0.2050500959 -0.09699654579 0.0009778723807696542 -0.00025267083985067553
-0.1997286379 -0.09699654579 0.0010065991116199118 -0.00024681419039555234
-0.19440718 -0.09699654579 0.001036993297263147 -0.00024681594597325074
-0.189085722 -0.09699654579 0.0010621115250736887 -0.00024351454449326185
-0.183764264 -0.09699654579 0.0010845109665848763 -0.00022994121774553682
-0.178442806 -0.09699654579 0.0011081648350533605 -0.00020900869555024745
-0.173121348 -0.09699654579 0.0011123856609424614 -0.00018459114402348051
-0.16779989 -0.09699654579 0.0011040991135919328 -0.00014708213591435048
-0.1624784321 -0.09699654579 0.0010966695607936088 -0.00010156142494144293
-0.1571569741 -0.09699654579 0.0010839057651555264 -7.329397713587194e-05
-0.1518355161 -0.09699654579 0.0010739163376540703 -5.203368651191112e-05
-0.1465140581 -0.09699654579 0.0010625704471173983 -3.2331558591812724e-05
-0.1411926001 -0.09699654579 0.0010489196861635847 -1.6809265392677603e-05
-0.1358711421 -0.09699654579 0.0010319028867455497 -1.0259197937493244e-05
-0.1305496842 -0.09699654579 0.001012598440181142 -4.07524632821873e-06
-0.1252282262 -0.09699654579 0.0009961842290084138 1.5622488365340225e-06
-0.1199067682 -0.09699654579 0.0009834167464098061 6.100820798760152e-06
-0.1145853102 -0.09699654579 0.0009724046030002417 1.1322565981814968e-05
-0.1092638522 -0.09699654579 0.000961139006447006 1.630738374141303e-05
-0.1039423943 -0.09699654579 0.0009487686373339212 1.9830158693346954e-05
-0.09862093627 -0.09699654579 0.0009437910670216898 2.043958536430487e-05
-0.09329947084 -0.09699654579 0.0009387512032871016 2.1008584091019084e-05
-0.08797801286 -0.09699654579 0.0009335741253458886 2.146545321212483e-05
-0.08265655488 -0.09699654579 0.0009286603300958817 2.1467744487989767e-05
-0.0773350969 -0.09699654579 0.0009221955865388013 2.008704738816463e-05
-0.07201363891 -0.09699654579 0.0009153847062247541 1.863093866810353e-05
-0.06669218093 -0.09699654579 0.0009091420387406337 1.709470128712017e-05
-0.06137072667 -0.09699654579 0.000905164315964524 1.550362501341876e-05
-0.05604926869 -0.09699654579 0.000902413393736352 1.29677764074633e-05
-0.05072781071 -0.09699654579 0.0009003521973644878 1.0541685597051827e-05
-0.045406349 -0.09699654579 0.0008981119028786815 8.126874226844616e-06
-0.04008489102 -0.09699654579 0.0008955418166202734 5.7307143611954596e-06
-0.03476343304 -0.09699654579 0.0008932795583804417 4.3145360167194005e-06
-0.02944197692 -0.09699654579 0.0008904001616483817 6.1235445895444395e-06
-0.02412051894 -0.09699654579 0.0008878161963046313 7.87572792095908e-06
-0.01879905909 -0.09699654579 0.0008850688599288289 9.673833317489108e-06
-0.01347760204 -0.09699654579 0.0008824155189854187 1.1628561236401054e-05
-0.00815614406 -0.09699654579 0.0008751474785483717 1.1816298064858187e-05
-0.00283468538 -0.09699654579 0.0008642717487973815 1.0982724658027192e-05
0.002486772602 -0.09699654579 0.0008530741031808688 1.0277929797342504e-05
0.007808230817 -0.09699654579 0.0008418829334638388 9.636651641603798e-06
0.0131296888 -0.09699654579 0.0008307600427407934 8.868384442372551e-06
0.01845114678 -0.09699654579 0.0008208359591770648 1.0635443045824346e-07
0.02377260476 -0.09699654579 0.0008113914042464229 -1.4255296095937265e-05
0.02909406275 -0.09699654579 0.0008013005475685515 -2.9133653316407287e-05
0.03441552073 -0.09699654579 0.0007911849363066752 -4.4083787165561166e-05
0.03973697871 -0.09699654579 0.0007816488816254647 -5.847562562162955e-05
0.04505843669 -0.09699654579 0.0007795342552691528 -7.328943219671891e-05
0.05037989467 -0.09699654579 0.0007890954817989086 -8.864894172424139e-05
0.05570135266 -0.09699654579 0.0007988672752793637 -0.00010423330124739293
0.06102281436 -0.09699654579 0.0008090924728585498 -0.00012030838227397711
0.06634426862 -0.09699654579 0.0008185475968378637 -0.0001355082832323849
0.0716657266 -0.09699654579 0.0008280336381563505 -0.00015071179301320693
0.07698718458 -0.09699654579 0.0008388494368957157 -0.00014424189099342547
0.08230864257 -0.09699654579 0.0008496231386229152 -0.0001363878345185485
0.08763010055 -0.09699654579 0.0008597760329273903 -0.00012895206092450618
0.09295155853 -0.09699654579 0.0008700682332232866 -0.00012164325809898568
0.09827301651 -0.09699654579 0.0008801673037766968 -0.0001141787612976829
0.1035944745 -0.09699654579 0.0008828342467374752 -0.0001074788816304814
0.1089159325 -0.09699654579 0.0008702967174434873 -0.00010239743639029735
0.1142373979 -0.09699654579 0.0008586064499142161 -9.800159246726439e-05
0.1195588559 -0.09699654579 0.0008478206511546326 -9.413226231496944e-05
0.1248803139 -0.09699654579 0.0008368655514339609 -9.026001960650234e-05
0.1302017719 -0.09699654579 0.0008252396228961741 -8.593511672889774e-05
0.1355232298 -0.09699654579 0.0008078996237266081 -9.690309433110305e-05
0.1408446878 -0.09699654579 0.0007887655745476789 -0.00011710757288528224
0.1461661458 -0.09699654579 0.000770191921844598 -0.00013734806185089282
0.1514876038 -0.09699654579 0.0007519448911229187 -0.0001574512637404751
0.1568090618 -0.09699654579 0.0007336478321400183 -0.00017756720854835998
0.1621305197 -0.09699654579 0.0007165708353983238 -0.00019705873023943393
0.1674519777 -0.09699654579 0.0007190060608158313 -0.0002233025680916518
0.1727734357 -0.09699654579 0.0007278348166710196 -0.00025195469195537693
0.1780948937 -0.09699654579 0.0007370400733178898 -0.0002815652830461832
0.1834163517 -0.09699654579 0.0007459874159346098 -0.00031087087776588015
0.1887378097 -0.09699654579 0.0007550380528318944 -0.00033828142756802337
0.1940592676 -0.09699654579 0.0007639590727128915 -0.00036566900946859144
0.1993807256 -0.09699654579 0.0007942028418410082 -0.0003823386514060318
0.2047021836 -0.09699654579 0.000829946579233911 -0.0003958985725063764
0.2100236416 -0.09699654579 0.00086397591355025 -0.00040904187183077886
0.2153450996 -0.09699654579 0.0008976528279527467 -0.0004218796576694197
0.2206665576 -0.09699654579 0.0009312294081811378 -0.00043472070892685915
0.2259880155 -0.09699654579 0.0009649690495670268 -0.00044760044378473415
0.2313094735 -0.09699654579 0.0009971972325511567 -0.00044270550897762567
0.2366309315 -0.09699654579 0.0010283012506783836 -0.0004331557962620373
0.2419523895 -0.09699654579 0.0010596267484322495 -0.0004236106103763153
0.2472738475 -0.09699654579 0.0010907781436070203 -0.000414062948905863
0.2525953054 -0.09699654579 0.0011215401101231093 -0.0004048922883280495
0.2579167783 -0.09699654579 0.0011515002774760647 -0.00039565785135225876
0.2632382214 -0.09699654579 0.0011751711408212503 -0.0003757918141222528
0.2685596943 -0.09699654579 0.001197320908125949 -0.0003539490879002097
0.2738811374 -0.09699654579 0.001218885926745363 -0.0003322448486310753
0.2792026103 -0.09699654579 0.001239151118836237 -0.0003109424310621581
0.2845240533 -0.09699654579 0.0012596686152148789 -0.00028944723776317994
0.2898455262 -0.09699654579 0.0012808215393865828 -0.0002679758126740329
0.2951669693 -0.09699654579 0.0012927939728143022 -0.00023170950379231434
0.3004884422 -0.09699654579 0.001303029555334652 -0.00019526904254992783
0.3058098853 -0.09699654579 0.001313927027328699 -0.00015898029970744858
0.3111313581 -0.09699654579 0.0013247975095768826 -0.00012266997582078962
0.3164528012 -0.09699654579 0.0013349004974214452 -8.693453902415534e-05
0.3217742741 -0.09699654579 0.0013427878094207659 -5.232551229495125e-05
0.3270957172 -0.09699654579 0.0013312027552332155 -1.1260851520159021e-05
0.3324171901 -0.09699654579 0.0013193961382733132 2.9823323458665592e-05
0.3377386332 -0.09699654579 0.001307196818444045 6.998750706312333e-05
0.343060106 -0.09699654579 0.0012949607412899298 0.00010947656962250703
0.3483815491 -0.09699654579 0.0012827112135551295 0.0001491765383562623
0.353703022 -0.09699654579 0.0012626694884034849 0.00018849124806525431
0.3590244651 -0.09699654579 0.0012271799041566683 0.00022597332627425433
0.364345938 -0.09699654579 0.0011916767630086621 0.00026149060029715337
0.369667381 -0.09699654579 0.0011560492012560055 0.0002970082636691784
0.3749888539 -0.09699654579 0.0011205609224555588 0.00033261785322501587
0.380310297 -0.09699654579 0.0010852690978398654 0.0003665318892516751
0.3856317699 -0.09699654579 0.001025831120621588 0.0003905568063127291
0.390953213 -0.09699654579 0.0009597247614062313 0.0004130938445227772
0.3962746859 -0.09699654579 0.0008923510589976333 0.0004370824392917876
0.4015961289 -0.09699654579 0.000827285679502004 0.00045835396305734735
0.4069176018 -0.09699654579 0.0007633480545461145 0.00047774966183961786
0.4122390449 -0.09699654579 0.0006880908477121011 0.0004791563369942183
0.4175605178 -0.09699654579 0.000597940213795798 0.00045688595930641905
0.4228819609 -0.09699654579 0.00051290595001451 0.00043404909282697944
0.4282034338 -0.09699654579 0.0004296242512331033 0.0004111719977178269
0.4335248768 -0.09699654579 0.0003458009887308361 0.00038832851393401813
0.4388463497 -0.09699654579 0.00026333480812479885 0.00034952802875838623
0.4441677928 -0.09699654579 0.00019489074106300228 0.000277345106508843
0.4494892657 -0.09699654579 0.00012634451763577416 0.0002060355108273339
0.4548107088 -0.09699654579 5.737990201596106e-05 0.00013491942127923605
0.4601321816 -0.09699654579 -1.0397377777465213e-05 6.440314458025562e-05
0.4654536247 -0.09699654579 -5.6926410365168296e-05 -1.3521821056726956e-05
0.4707750976 -0.09699654579 -8.062796694260743e-05 -0.00010868947750429675
0.4760965407 -0.09699654579 -0.00010529628278437757 -0.00020701457119903105
0.4814180136 -0.09699654579 -0.00012906622440452393 -0.00030230519163959547
0.4867394567 -0.09699654579 -0.00015193213601928565 -0.00039363743784618147
0.4920609295 -0.09699654579 -0.00014066778824893487 -0.00048495108280544437
0.4973823726 -0.09699654579 -0.0001208584960281857 -0.0005762296084706952
0.5027038455 -0.09699654579 -0.00010179283301033632 -0.0006647825633454603
0.5080252886 -0.09699654579 -8.270611101195977e-05 -0.0007540853552197629
0.5133467317 -0.09699654579 -5.017164283480658e-05 -0.0008346119247854268
0.5186682343 -0.09699654579 -3.1372347234866057e-06 -0.0009043715831098136
0.5239896774 -0.09699654579 4.057420670281643e-05 -0.0009711003056453038
0.5293111205 -0.09699654579 8.603378993344974e-05 -0.0010393993275040645
0.5346325636 -0.09699654579 0.00013832961824721964 -0.0010982378877368673
0.5399540663 -0.09699654579 0.00019519366441907258 -0.001142791115518057
0.5452755094 -0.09699654579 0.0002501792262131415 -0.0011868788581922704
0.5505969524 -0.09699654579 0.0003069874168106506 -0.0012314602297357456
0.5559183955 -0.09699654579 0.0003652801349172684 -0.0012607588150694259
0.5612398982 -0.09699654579 0.000420776204831749 -0.0012854136407510009
0.5665613413 -0.09699654579 0.00047612046350352843 -0.0013099160041080706
0.5718827844 -0.09699654579 0.0005326062914445238 -0.0013272869619941935
0.5772042274 -0.09699654579 0.0005823643923396262 -0.001336231952370775
0.5825257301 -0.09699654579 0.000631632193850881 -0.0013451482257479262
0.5878471732 -0.09699654579 0.0006790961039511212 -0.0013481000219663776
0.5931686163 -0.09699654579 0.0007186324489407423 -0.001345971747414482
0.5984900594 -0.09699654579 0.00075820727066594 -0.0013418966853447384
0.6038115621 -0.09699654579 0.0007896956826254191 -0.0013353544491366098
0.6091330051 -0.09699654579 0.000815993849552809 -0.0013247347379154307
0.6144544482 -0.09699654579 0.0008395015600641625 -0.001316330520216206
0.6197758913 -0.09699654579 0.0008525575414384197 -0.0013057420562351482
0.625097394 -0.09699654579 0.0008646395276834109 -0.0012959004966306188
0.6304188371 -0.09699654579 0.0008686946670863401 -0.0012889269364602476
0.6357402802 -0.09699654579 0.0008674045147653698 -0.0012806475339389865
0.6410617828 -0.09699654579 0.0008617947904977553 -0.0012778621845555864
0.6463832259 -0.09699654579 0.0008479471500978195 -0.0012792290426817262
0.651704669 -0.09699654579 0.0008294651289426667 -0.0012839483482697076
0.6570261121 -0.09699654579 0.0008060212007445594 -0.0012989591299456041
0.6623476148 -0.09699654579 0.0007800182578209326 -0.001318732956910958
0.6676690578 -0.09699654579 0.0007505163737401839 -0.001346285709796398
0.6729905009 -0.09699654579 0.0007170225642959171 -0.001382251491151216
0.678311944 -0.09699654579 0.0006800332916528626 -0.001426912556506604
0.6836334467 -0.09699654579 0.000643345567664882 -0.001481394341050507
0.6889548898 -0.09699654579 0.0006073623677062598 -0.0015496581050432963
0.6942763329 -0.09699654579 0.000571716538150216 -0.0016317678551211515
0.6995977759 -0.09699654579 0.0005371702446590993 -0.0017265476108949166
0.7049192786 -0.09699654579 0.0005086367033874781 -0.0018328264931536005
0.7102407217 -0.09699654579 0.00048747281908768594 -0.00195406482428056
0.7155621648 -0.09699654579 0.00047614257126707323 -0.0020935090915899577
0.7208836079 -0.09699654579 0.00047319406000589465 -0.00224940041294235
0.7262051105 -0.09699654579 0.00048517689307849856 -0.0024189292114971226
0.7315265536 -0.09699654579 0.0005106660791213563 -0.0025998958822121758
0.7368479967 -0.09699654579 0.0005577606503685095 -0.002798633224605022
0.7421694398 -0.09699654579 0.0006311669889247704 -0.0030100249028802875
0.7474909425 -0.09699654579 0.0007278637281614189 -0.0032329448090158007
0.7528123856 -0.09699654579 0.0008576567101316707 -0.003463830676989215
0.7581338286 -0.09699654579 0.0010196122586512428 -0.0036975615989157293
-0.3008363545 -0.09367749095 0.0006950445767231945 -5.9690515829169715e-05
-0.2955148816 -0.09367749095 0.0007058116951835386 -6.972596151550568e-05
-0.2901934385 -0.09367749095 0.000723379600790367 -8.20923126906957e-05
-0.2848719656 -0.09367749095 0.0007240636121167836 -9.152873509481023e-05
-0.2795505226 -0.09367749095 0.0007294712093884115 -0.0001028178251471333
-0.2742290497 -0.09367749095 0.000741832863206648 -0.00010920302582301521
-0.2689076066 -0.09367749095 0.0007604134520222014 -0.00011952419916853719
-0.2635861337 -0.09367749095 0.0007864375486924748 -0.00012923044581629085
-0.2582646906 -0.09367749095 0.0008067533272989048 -0.00014066332713533398
-0.2529432178 -0.09367749095 0.0008237467840814684 -0.00015122669129230708