VARIABLES = X,Y,phix,phiy
ZONE I=200,J=200,F=POINT 
-0.3008363545 -0.1003156006 -0.0003955727731654719 0.0010859788382552782
-0.2955148816 -0.1003156006 -0.0004124937021548745 0.0010911823008011494
-0.2901934385 -0.1003156006 -0.00043980841796720086 0.0010943880059711413
-0.2848719656 -0.1003156006 -0.00047239817546886206 0.001102042078915642
-0.2795505226 -0.1003156006 -0.0005164630894824838 0.0011042205432904224
-0.2742290497 -0.1003156006 -0.0005789856333115508 0.0010993084222757855
-0.2689076066 -0.1003156006 -0.000639305508794959 0.0010937095662596219
-0.2635861337 -0.1003156006 -0.0006709816866544343 0.001075152333288526
-0.2582646906 -0.1003156006 -0.000706278572543334 0.00104410890477834
-0.2529432178 -0.1003156006 -0.000744600641707879 0.0010052792723675113
-0.2476217598 -0.1003156006 -0.0007818852066872353 0.0009624622961717612
-0.2423003018 -0.1003156006 -0.000781106417564482 0.000912252073192525
-0.2369788438 -0.1003156006 -0.0007773001528097943 0.0008617782216070065
-0.2316573858 -0.1003156006 -0.000762235917033433 0.0008041257278888208
-0.2263359278 -0.1003156006 -0.0007403972308084438 0.0007524474491081766
-0.2210144699 -0.1003156006 -0.0007474694548563457 0.0007121841235329758
-0.2156930119 -0.1003156006 -0.0007538836922785114 0.0006712807018051051
-0.2103715539 -0.1003156006 -0.0007706455361365739 0.0006341406871323539
-0.2050500959 -0.1003156006 -0.0007575416195231801 0.0005991118405568654
-0.1997286379 -0.1003156006 -0.0007449112428500851 0.0005655556280963153
-0.19440718 -0.1003156006 -0.000741111453711207 0.0005291625065630194
-0.189085722 -0.1003156006 -0.0007267209782803832 0.00047870995069692186
-0.183764264 -0.1003156006 -0.0007099939608721807 0.0004063265904802269
-0.178442806 -0.1003156006 -0.000694663281286649 0.00033478494914440546
-0.173121348 -0.1003156006 -0.0006506234538737978 0.0002743122012201821
-0.16779989 -0.1003156006 -0.0006043645065758743 0.0002161568670030739
-0.1624784321 -0.1003156006 -0.000553416072260782 0.00015652059264808162
-0.1571569741 -0.1003156006 -0.0005012511567013031 0.00011534862622008633
-0.1518355161 -0.1003156006 -0.0004482857563174564 7.901237905513553e-05
-0.1465140581 -0.1003156006 -0.00039342044052407036 4.159296867589688e-05
-0.1411926001 -0.1003156006 -0.0003413092056435442 1.1967887095504348e-05
-0.1358711421 -0.1003156006 -0.0002882202844768862 -6.600554329043406e-06
-0.1305496842 -0.1003156006 -0.00023530816418174886 -2.5143953659346726e-05
-0.1252282262 -0.1003156006 -0.00017885151819587594 -4.4103495611556956e-05
-0.1199067682 -0.1003156006 -0.0001233692676209056 -6.207627031382514e-05
-0.1145853102 -0.1003156006 -6.887834168135557e-05 -8.1196639954754e-05
-0.1092638522 -0.1003156006 -1.2908711806420486e-05 -9.896842622130141e-05
-0.1039423943 -0.1003156006 4.197168251009402e-05 -0.0001149810001789242
-0.09862093627 -0.1003156006 8.07590192554203e-05 -0.00012122180918842258
-0.09329947084 -0.1003156006 0.00011913140114014105 -0.0001261569627154196
-0.08797801286 -0.1003156006 0.0001574878520924711 -0.0001310948867095075
-0.08265655488 -0.1003156006 0.00019360002557707948 -0.00013456110601201823
-0.0773350969 -0.1003156006 0.00022375201078381497 -0.00012944631672088484
-0.07201363891 -0.1003156006 0.00025430234201538946 -0.00012412907156590587
-0.06669218093 -0.1003156006 0.0002847509637098413 -0.00011880799859769376
-0.06137072667 -0.1003156006 0.0003159784406697979 -0.00011381648523908812
-0.05604926869 -0.1003156006 0.0003432764557633152 -0.00010808364072198346
-0.05072781071 -0.1003156006 0.0003693165283291635 -0.0001030611762541695
-0.045406349 -0.1003156006 0.0003953617713248509 -9.810534467855589e-05
-0.04008489102 -0.1003156006 0.0004219303053266383 -9.278116752882202e-05
-0.03476343304 -0.1003156006 0.00044686167253139375 -8.927465636418368e-05
-0.02944197692 -0.1003156006 0.00047078555198931725 -9.191677887050987e-05
-0.02412051894 -0.1003156006 0.0004944944201024142 -9.462210134600227e-05
-0.01879905909 -0.1003156006 0.0005181131908195044 -9.753990234564235e-05
-0.01347760204 -0.1003156006 0.0005416235808720311 -0.00010021107122467863
-0.00815614406 -0.1003156006 0.0005704653536771312 -9.95496386991272e-05
-0.00283468538 -0.1003156006 0.0006034598614221316 -9.699142602480953e-05
0.002486772602 -0.1003156006 0.0006372014256927869 -9.483987783475456e-05
0.007808230817 -0.1003156006 0.0006709498720282802 -9.266039174322073e-05
0.0131296888 -0.1003156006 0.0007044022895484485 -9.019014798035364e-05
0.01845114678 -0.1003156006 0.0007344074306339448 -7.428924330178979e-05
0.02377260476 -0.1003156006 0.0007629755163807867 -4.8326789075564896e-05
0.02909406275 -0.1003156006 0.0007920305790421239 -2.1271191940227865e-05
0.03441552073 -0.1003156006 0.0008208607565624288 5.783020786783673e-06
0.03973697871 -0.1003156006 0.000849630673002349 3.188398174955624e-05
0.04505843669 -0.1003156006 0.0008654630106823556 5.729390430640854e-05
0.05037989467 -0.1003156006 0.0008636249043473017 8.076312203270523e-05
0.05570135266 -0.1003156006 0.0008609658079801017 0.0001052816087565265
0.06102281436 -0.1003156006 0.0008576508622216488 0.00012976059079073844
0.06634426862 -0.1003156006 0.0008555155769328831 0.0001535135988423858
0.0716657266 -0.1003156006 0.0008542194403996479 0.00017677104654003874
0.07698718458 -0.1003156006 0.0008607912713968046 0.00017263695411149437
0.08230864257 -0.1003156006 0.0008683421310727831 0.00016599943034119606
0.08763010055 -0.1003156006 0.0008753759069001618 0.00015839040903462508
0.09295155853 -0.1003156006 0.0008827780511390956 0.00015181705058688532
0.09827301651 -0.1003156006 0.0008906396613662083 0.00014584714636624055
0.1035944745 -0.1003156006 0.000905547020844409 0.0001450608033880408
0.1089159325 -0.1003156006 0.0009386692892894608 0.0001546631205162079
0.1142373979 -0.1003156006 0.0009722599653519685 0.0001642617344049998
0.1195588559 -0.1003156006 0.0010033212174426385 0.00017461449268190164
0.1248803139 -0.1003156006 0.0010351823487426708 0.00018480960674169584
0.1302017719 -0.1003156006 0.0010676258370100884 0.00019463865552538751
0.1355232298 -0.1003156006 0.0010965995407083847 0.00021916632395282964
0.1408446878 -0.1003156006 0.0011231103972278633 0.0002542023665162196
0.1461661458 -0.1003156006 0.0011483264465784787 0.0002880616922085036
0.1514876038 -0.1003156006 0.0011738158483509454 0.0003219177170175298
0.1568090618 -0.1003156006 0.0011991605248642683 0.0003557668117009558
0.1621305197 -0.1003156006 0.0012244699838288226 0.000389698576515079
0.1674519777 -0.1003156006 0.0012340786342155182 0.00041895173966139673
0.1727734357 -0.1003156006 0.001237332529570824 0.00044609376925020005
0.1780948937 -0.1003156006 0.0012405708082707497 0.00047323389518926277
0.1834163517 -0.1003156006 0.0012436254343132008 0.0005003709293393552
0.1887378097 -0.1003156006 0.0012474724734772538 0.0005274825814800195
0.1940592676 -0.1003156006 0.001251138913845768 0.0005544063083008104
0.1993807256 -0.1003156006 0.0012566788854321762 0.0005808911602585658
0.2047021836 -0.1003156006 0.0012628664463553863 0.0006068226561183049
0.2100236416 -0.1003156006 0.0012692492578766528 0.0006330087863907074
0.2153450996 -0.1003156006 0.0012755841644260032 0.0006595873701896761
0.2206665576 -0.1003156006 0.0012816451297463227 0.0006856442752475088
0.2259880155 -0.1003156006 0.0012877490585896064 0.0007116779199677299
0.2313094735 -0.1003156006 0.0012936456657143263 0.0007483211791746724
0.2366309315 -0.1003156006 0.0012981025459667761 0.0007871145458099964
0.2419523895 -0.1003156006 0.0013020141696764263 0.0008249821254765569
0.2472738475 -0.1003156006 0.0013054824930660506 0.0008627630022718102
0.2525953054 -0.1003156006 0.0013089737279989783 0.000900539611783275
0.2579167783 -0.1003156006 0.0013109462285387096 0.0009379344606454442
0.2632382214 -0.1003156006 0.0012856635500320182 0.0009828943931370529
0.2685596943 -0.1003156006 0.0012535822587606583 0.001030847736803921
0.2738811374 -0.1003156006 0.0012206772416274985 0.0010806650136726762
0.2792026103 -0.1003156006 0.0011883497345895658 0.0011289277813822617
0.2845240533 -0.1003156006 0.0011573137622167317 0.001173545280088065
0.2898455262 -0.1003156006 0.0011259459411940287 0.0012181703817883964
0.2951669693 -0.1003156006 0.0010592217533198914 0.0012295323619962836
0.3004884422 -0.1003156006 0.0009876565168747695 0.0012351383390470057
0.3058098853 -0.1003156006 0.0009212434053448307 0.001239981649664368
0.3111313581 -0.1003156006 0.0008549180470461379 0.0012448029904628948
0.3164528012 -0.1003156006 0.0007886322408751816 0.0012496203064351714
0.3217742741 -0.1003156006 0.0007228686833677728 0.0012535038706908697
0.3270957172 -0.1003156006 0.0006683677558887866 0.0012070878765817372
0.3324171901 -0.1003156006 0.0006135186233201644 0.001160601044655654
0.3377386332 -0.1003156006 0.0005584964265277737 0.0011140898279582837
0.343060106 -0.1003156006 0.0005038531938264527 0.0010675634993321304
0.3483815491 -0.1003156006 0.00045398195379404353 0.0010241346966723065
0.353703022 -0.1003156006 0.00041605674793208155 0.0009746277214634812
0.3590244651 -0.1003156006 0.00040485265517092086 0.0009099286883999156
0.364345938 -0.1003156006 0.00039380628977053994 0.000845205263585981
0.369667381 -0.1003156006 0.0003846671078352973 0.0007851108084992853
0.3749888539 -0.1003156006 0.0003754234889582929 0.0007238924206178171
0.380310297 -0.1003156006 0.0003652761117465709 0.0006620414487967724
0.3856317699 -0.1003156006 0.00038912890209218153 0.0005974442796334256
0.390953213 -0.1003156006 0.0004225882089377611 0.000538126533322746
0.3962746859 -0.1003156006 0.0004557219973785091 0.00047924439595403256
0.4015961289 -0.1003156006 0.0004876562304895274 0.0004202422157645162
0.4069176018 -0.1003156006 0.0005193064866782196 0.0003611641009590617
0.4122390449 -0.1003156006 0.0005638206976031486 0.0003204936594099278
0.4175605178 -0.1003156006 0.0006320754493748163 0.00029872832714950676
0.4228819609 -0.1003156006 0.0007026016507212491 0.0002757769721160594
0.4282034338 -0.1003156006 0.000772914723587479 0.0002531457104886432
0.4335248768 -0.1003156006 0.0008365358375259357 0.0002331228417548679
0.4388463497 -0.1003156006 0.0009003754469364115 0.00022716782456356452
0.4441677928 -0.1003156006 0.0009641946506942972 0.00025962361827089835
0.4494892657 -0.1003156006 0.001026719256633793 0.00029143362002577596
0.4548107088 -0.1003156006 0.00108464951502363 0.0003209990554160062
0.4601321816 -0.1003156006 0.0011453868815539349 0.00035197606497724124
0.4654536247 -0.1003156006 0.0011922344779913998 0.00039702349230733117
0.4707750976 -0.1003156006 0.0012154464339603505 0.0004613181271180328
0.4760965407 -0.1003156006 0.0012368222029115565 0.0005210058656622838
0.4814180136 -0.1003156006 0.0012581568223875108 0.0005807056610769502
0.4867394567 -0.1003156006 0.0012799382041007612 0.0006406491856870276
0.4920609295 -0.1003156006 0.00126725956714725 0.0007037385995058035
0.4973823726 -0.1003156006 0.001244684320562885 0.0007655955628804847
0.5027038455 -0.1003156006 0.0012223293094922641 0.0008274240576930898
0.5080252886 -0.1003156006 0.001200072419751627 0.0008891868140247561
0.5133467317 -0.1003156006 0.001167533199401764 0.0009374393968446894
0.5186682343 -0.1003156006 0.0011156874174987161 0.0009784702389913581
0.5239896774 -0.1003156006 0.001063504016973568 0.0010196952128824158
0.5293111205 -0.1003156006 0.0010126088563038255 0.0010599646608444018
0.5346325636 -0.1003156006 0.0009607902257158292 0.0010879135962455402
0.5399540663 -0.1003156006 0.0009006808183808652 0.0011036147944298662
0.5452755094 -0.1003156006 0.0008384488243751142 0.0011195345980513519
0.5505969524 -0.1003156006 0.0007798648389732838 0.0011349336522828368
0.5559183955 -0.1003156006 0.0007233301117837425 0.001136380610017481
0.5612398982 -0.1003156006 0.0006618068321640209 0.001131831866165064
0.5665613413 -0.1003156006 0.0006014081551055195 0.0011275873648090207
0.5718827844 -0.1003156006 0.0005460505479865089 0.0011188904286814352
0.5772042274 -0.1003156006 0.0004901173878373276 0.0011001155889366926
0.5825257301 -0.1003156006 0.0004334840674083252 0.0010811237962959689
0.5878471732 -0.1003156006 0.000382360563446278 0.0010589441885529719
0.5931686163 -0.1003156006 0.00033380361820422563 0.001029613835010563
0.5984900594 -0.1003156006 0.0002849556162082248 0.0010004408677660023
0.6038115621 -0.1003156006 0.00024115284343889922 0.0009646829709107215
0.6091330051 -0.1003156006 0.00019921984568782854 0.0009285785158157512
0.6144544482 -0.1003156006 0.00015977119434718782 0.0008876940729002434
0.6197758913 -0.1003156006 0.00012598973486372214 0.0008458442981906803
0.625097394 -0.1003156006 9.396458170620558e-05 0.0008023568598171694
0.6304188371 -0.1003156006 6.627824267703192e-05 0.0007564148313182398
0.6357402802 -0.1003156006 4.236338681545129e-05 0.0007123209069750477
0.6410617828 -0.1003156006 2.1708335705871735e-05 0.0006666028323343557
0.6463832259 -0.1003156006 5.644223442180653e-06 0.0006213752319513444
0.651704669 -0.1003156006 -8.142975379123143e-06 0.0005767610639132078
0.6570261121 -0.1003156006 -1.797723928966344e-05 0.0005358114812726515
0.6623476148 -0.1003156006 -2.6548722322215184e-05 0.0004963130937838155
0.6676690578 -0.1003156006 -3.2428001785811714e-05 0.00045915157417622375
0.6729905009 -0.1003156006 -3.6486618817904683e-05 0.00042607486932413864
0.678311944 -0.1003156006 -4.054056137735978e-05 0.00039596479981079084
0.6836334467 -0.1003156006 -4.4862501093229415e-05 0.0003689818726655813
0.6889548898 -0.1003156006 -4.996543324654376e-05 0.00034695028790372175
0.6942763329 -0.1003156006 -5.847297169777006e-05 0.0003252023749566444
0.6995977759 -0.1003156006 -6.974913283743226e-05 0.0003079783187825932
0.7049192786 -0.1003156006 -8.287307817877177e-05 0.00029362608260040813
0.7102407217 -0.1003156006 -0.00010197854090751511 0.0002810103540655759
0.7155621648 -0.1003156006 -0.00012670134241231015 0.000270173984928392
0.7208836079 -0.1003156006 -0.0001567745775492858 0.00025826165329961306
0.7262051105 -0.1003156006 -0.00019388011412919853 0.00024515522545142857
0.7315265536 -0.1003156006 -0.00023597199372322704 0.0002310638241896063
0.7368479967 -0.1003156006 -0.0002894218825532456 0.0002117512309446781
0.7421694398 -0.1003156006 -0.00034739912113023716 0.0001880321151493078
0.7474909425 -0.1003156006 -0.00040854844880332583 0.00015810057961495894
0.7528123856 -0.1003156006 -0.00047700186479677906 0.00011915180086163863
0.7581338286 -0.1003156006 -0.0005519793298304601 7.358654543627095e-05
-0.3008363545 -0.09699654579 -0.00037242454368411747 0.0011028156520554915
-0.2955148816 -0.09699654579 -0.00039659739124889276 0.0011050560685620372
-0.2901934385 -0.09699654579 -0.0004190787242555961 0.0011174880030676245
-0.2848719656 -0.09699654579 -0.0004552008659291987 0.0011233445430791
-0.2795505226 -0.09699654579 -0.0005008913281713913 0.0011231859748616882
-0.2742290497 -0.09699654579 -0.0005549996844682014 0.0011221117104832522
-0.2689076066 -0.09699654579 -0.0006203771638578342 0.0011131882237497485
-0.2635861337 -0.09699654579 -0.0006659368243437819 0.001095541396447284
-0.2582646906 -0.09699654579 -0.0006955998742335385 0.0010659626499899854
-0.2529432178 -0.09699654579 -0.0007337892557518115 0.0010275076054697965
-0.2476217598 -0.09699654579 -0.0007690778605064443 0.0009726347266824164
-0.2423003018 -0.09699654579 -0.0007788704647322302 0.0009115152485291022
-0.2369788438 -0.09699654579 -0.0007665748778105609 0.0008514128036531464
-0.2316573858 -0.09699654579 -0.0007481513816111272 0.000794930519165584
-0.2263359278 -0.09699654579 -0.0007095863267616489 0.0007363923768424492
-0.2210144699 -0.09699654579 -0.0007001056145437209 0.000694306212282283
-0.2156930119 -0.09699654579 -0.0007164248503159822 0.0006601735694893431
-0.2103715539 -0.09699654579 -0.000735885756835582 0.0006393360903283109
-0.2050500959 -0.09699654579 -0.0007282995545255106 0.0006132319603986818
-0.1997286379 -0.09699654579 -0.0007252259894331374 0.0005767630885539409
-0.19440718 -0.09699654579 -0.0007283904704442723 0.0005381073604707781
-0.189085722 -0.09699654579 -0.0007171936271254832 0.00047410693550840085
-0.183764264 -0.09699654579 -0.0007050099226172461 0.00040150608602320385
-0.178442806 -0.09699654579 -0.0006834555528247891 0.00032275340638947123
-0.173121348 -0.09699654579 -0.0006419494378856496 0.0002603023733290895
-0.16779989 -0.09699654579 -0.000589077036618016 0.00020018212811521963
-0.1624784321 -0.09699654579 -0.000542500738664488 0.0001331574378516914
-0.1571569741 -0.09699654579 -0.00048695521057781654 8.183934075086005e-05
-0.1518355161 -0.09699654579 -0.00043612898257399535 4.240996999874253e-05
-0.1465140581 -0.09699654579 -0.0003851384562412529 6.0866784610151985e-06
-0.1411926001 -0.09699654579 -0.0003313248146259979 -2.3887244211059988e-05
-0.1358711421 -0.09699654579 -0.0002742935722552692 -4.2870140283568176e-05
-0.1305496842 -0.09699654579 -0.00021384998751679333 -6.188020655732933e-05
-0.1252282262 -0.09699654579 -0.00015794972254178593 -7.982624671357301e-05
-0.1199067682 -0.09699654579 -0.00010453708927333787 -9.570343134573368e-05
-0.1145853102 -0.09699654579 -5.236516696976288e-05 -0.0001121764236988403
-0.1092638522 -0.09699654579 -2.1768477245310032e-07 -0.00012818101507496786
-0.1039423943 -0.09699654579 5.248965865932393e-05 -0.00014094778260532277
-0.09862093627 -0.09699654579 8.63903201531582e-05 -0.00014426058188753724
-0.09329947084 -0.09699654579 0.0001198901899340543 -0.00014684920123697338
-0.08797801286 -0.09699654579 0.00015312729711731355 -0.0001485787044426297
-0.08265655488 -0.09699654579 0.00018668747950825688 -0.00014998797839369183
-0.0773350969 -0.09699654579 0.00021794451438662363 -0.00014520658408417842
-0.07201363891 -0.09699654579 0.0002502942413058313 -0.0001402637154033061
-0.06669218093 -0.09699654579 0.000282443236544104 -0.00013533447989854362
-0.06137072667 -0.09699654579 0.0003137887610611294 -0.00013093014537234076
-0.05604926869 -0.09699654579 0.000340937775419043 -0.00012497460135880645
-0.05072781071 -0.09699654579 0.00036707372757283926 -0.00011954863619951687
-0.045406349 -0.09699654579 0.00039266901053656636 -0.00011412616155238502
-0.04008489102 -0.09699654579 0.00041900988784815375 -0.00010844171285936904
-0.03476343304 -0.09699654579 0.00044393730135535055 -0.00010469682524919336
-0.02944197692 -0.09699654579 0.0004668235967028314 -0.00010818628353790386
-0.02412051894 -0.09699654579 0.0004896755522011143 -0.00011162745713059909
-0.01879905909 -0.09699654579 0.0005128052619381505 -0.00011513119629467234
-0.01347760204 -0.09699654579 0.0005358113944434259 -0.0001188321274375512
-0.00815614406 -0.09699654579 0.0005649660132489718 -0.00011904472038577475
-0.00283468538 -0.09699654579 0.0005999563548558641 -0.00011725258151776384
0.002486772602 -0.09699654579 0.0006356485263283973 -0.00011557586157852587
0.007808230817 -0.09699654579 0.0006712243150149326 -0.00011406351740657912
0.0131296888 -0.09699654579 0.0007063396952326568 -0.00011233175801320127
0.01845114678 -0.09699654579 0.0007385426019482186 -9.481147461346968e-05
0.02377260476 -0.09699654579 0.0007691702199958904 -6.615487703814377e-05
0.02909406275 -0.09699654579 0.0008011416368436146 -3.63522254253981e-05
0.03441552073 -0.09699654579 0.0008329356968089596 -6.4125479706881865e-06
0.03973697871 -0.09699654579 0.0008637441481983548 2.2378507971122368e-05
0.04505843669 -0.09699654579 0.0008792291801353909 5.0531634687672056e-05
0.05037989467 -0.09699654579 0.0008740540884269445 7.62810292683281e-05
0.05570135266 -0.09699654579 0.0008688626208289979 0.00010242632988997066
0.06102281436 -0.09699654579 0.0008627984652986001 0.00012902352714117923
0.06634426862 -0.09699654579 0.000857887472911219 0.000154544829934383
0.0716657266 -0.09699654579 0.000853053771635412 0.00018006393563054404
0.07698718458 -0.09699654579 0.0008577666670341586 0.0001719884624076872
0.08230864257 -0.09699654579 0.0008630202861468731 0.00016162845541041213
0.08763010055 -0.09699654579 0.0008687417680504659 0.00015209843887715045
0.09295155853 -0.09699654579 0.0008747385355164457 0.00014258097056414113
0.09827301651 -0.09699654579 0.0008803568710651508 0.0001328637357933046
0.1035944745 -0.09699654579 0.0008955211807592849 0.0001297320377923269
0.1089159325 -0.09699654579 0.0009325692691392278 0.00013874420205216818
0.1142373979 -0.09699654579 0.0009676598621212616 0.00014794018646042904
0.1195588559 -0.09699654579 0.0010015454311110314 0.00015702280577322675
0.1248803139 -0.09699654579 0.001035061901332636 0.00016609723350269223
0.1302017719 -0.09699654579 0.0010700396737137437 0.00017537152714726216
0.1355232298 -0.09699654579 0.001100582543720954 0.0002014501472169103
0.1408446878 -0.09699654579 0.0011266275582393916 0.00023767372745073587
0.1461661458 -0.09699654579 0.0011525558816519192 0.00027392145099931227
0.1514876038 -0.09699654579 0.0011801465216897183 0.00031036923518810105
0.1568090618 -0.09699654579 0.00120757618412688 0.00034681568071594676
0.1621305197 -0.09699654579 0.0012343228634245985 0.00038237625235510965
0.1674519777 -0.09699654579 0.001243317329096058 0.0004121242860095743
0.1727734357 -0.09699654579 0.001246584241375846 0.0004397292956712774
0.1780948937 -0.09699654579 0.0012496896378039978 0.00046766915968940676
0.1834163517 -0.09699654579 0.001253209948513801 0.0004954716707699989
0.1887378097 -0.09699654579 0.0012563160573846057 0.0005228195161737786
0.1940592676 -0.09699654579 0.001259572296091987 0.0005501811564499167
0.1993807256 -0.09699654579 0.0012664289247059698 0.0005765735689275005
0.2047021836 -0.09699654579 0.0012744553710518226 0.0006022559581393098
0.2100236416 -0.09699654579 0.0012813487274946527 0.0006284406715832853
0.2153450996 -0.09699654579 0.0012875827556326205 0.000654276242907407
0.2206665576 -0.09699654579 0.0012936673895166328 0.0006801407896750173
0.2259880155 -0.09699654579 0.0013004193551021152 0.0007060857339263549
0.2313094735 -0.09699654579 0.001307118282109513 0.000744661864394515
0.2366309315 -0.09699654579 0.0013154925414766907 0.0007853145678072665
0.2419523895 -0.09699654579 0.001323975776356531 0.0008259781379029034
0.2472738475 -0.09699654579 0.0013321237909083717 0.0008666368958844657
0.2525953054 -0.09699654579 0.0013382472534787418 0.000906559728674878
0.2579167783 -0.09699654579 0.0013432458533472684 0.0009452436967072378
0.2632382214 -0.09699654579 0.0013163540766485161 0.0009968980441349468
0.2685596943 -0.09699654579 0.0012829346845006102 0.0010517802411352166
0.2738811374 -0.09699654579 0.00124965208929916 0.00110411430335458
0.2792026103 -0.09699654579 0.0012168008636742457 0.0011537615358759154
0.2845240533 -0.09699654579 0.0011838070212039122 0.0012037563301668108
0.2898455262 -0.09699654579 0.0011510161911311447 0.0012553124790796722
0.2951669693 -0.09699654579 0.0010771835417734898 0.0012664190539004912
0.3004884422 -0.09699654579 0.0010016890659015668 0.0012726256838768964
0.3058098853 -0.09699654579 0.0009263315699959698 0.001279098703135546
0.3111313581 -0.09699654579 0.0008513237841977625 0.0012855711156750385
0.3164528012 -0.09699654579 0.0007787222567349838 0.0012913630581807018
0.3217742741 -0.09699654579 0.0007103852980823101 0.0012938719782460187
0.3270957172 -0.09699654579 0.0006512303131803649 0.001243426417960759
0.3324171901 -0.09699654579 0.0005926449145844931 0.0011930066417653843
0.3377386332 -0.09699654579 0.0005358732068697772 0.0011439151784660385
0.343060106 -0.09699654579 0.0004811303189208722 0.001095887489737598
0.3483815491 -0.09699654579 0.00042527224447730855 0.0010477297492644893
0.353703022 -0.09699654579 0.0003842641761700192 0.000991651722676265
0.3590244651 -0.09699654579 0.00037247150993871764 0.0009217032785595736
0.364345938 -0.09699654579 0.00036182111897437665 0.000854831279615286
0.369667381 -0.09699654579 0.00035083889365665065 0.0007880138169398642
0.3749888539 -0.09699654579 0.0003386879188112984 0.0007210180474279055
0.380310297 -0.09699654579 0.0003276812710758796 0.0006565370332080655
0.3856317699 -0.09699654579 0.0003531837625797934 0.0005916879892701743
0.390953213 -0.09699654579 0.00038862640664771706 0.0005250581410458799
0.3962746859 -0.09699654579 0.0004241045218491653 0.00045585870014697144
0.4015961289 -0.09699654579 0.0004591054698161614 0.0003911110144091683
0.4069176018 -0.09699654579 0.0004930456272134432 0.00032902083267030414
0.4122390449 -0.09699654579 0.0005462640553064423 0.0002828636358353463
0.4175605178 -0.09699654579 0.0006255121226695277 0.000257585047631067
0.4228819609 -0.09699654579 0.0006993848709710581 0.00023497287733913915
0.4282034338 -0.09699654579 0.0007712336966398132 0.000212867724615344
0.4335248768 -0.09699654579 0.0008433006446482054 0.00019079302355093873
0.4388463497 -0.09699654579 0.0009190742883319542 0.000185839852736464
0.4441677928 -0.09699654579 0.0009879913587198213 0.00022110259286325443
0.4494892657 -0.09699654579 0.0010563511402491203 0.00025560925587767095
0.4548107088 -0.09699654579 0.001124305215563754 0.0002899581756013326
0.4601321816 -0.09699654579 0.0011910202691406513 0.0003236369277663951
0.4654536247 -0.09699654579 0.0012370014012035304 0.00036951984814860306
0.4707750976 -0.09699654579 0.0012617216554561784 0.0004376207400307551
0.4760965407 -0.09699654579 0.0012876189093888005 0.0005095827570885476
0.4814180136 -0.09699654579 0.001312355337875111 0.0005777869129925145
0.4867394567 -0.09699654579 0.0013353396656560748 0.0006421525924453058
0.4920609295 -0.09699654579 0.0013201932828590865 0.0007100561348923556
0.4973823726 -0.09699654579 0.0012946103577578174 0.0007787734885856156
0.5027038455 -0.09699654579 0.0012713626493928657 0.0008434064712249186
0.5080252886 -0.09699654579 0.0012469625988723294 0.0009097811274633596
0.5133467317 -0.09699654579 0.0012063677840138452 0.0009662076708309062
0.5186682343 -0.09699654579 0.001149965393266049 0.0010098686923270034
0.5239896774 -0.09699654579 0.001097194479649226 0.0010507377684902655
0.5293111205 -0.09699654579 0.0010429037645913488 0.0010929757296220353
0.5346325636 -0.09699654579 0.0009816824577752233 0.00112487531286034
0.5399540663 -0.09699654579 0.0009177102820967584 0.0011408836603815798
0.5452755094 -0.09699654579 0.0008554732958560853 0.0011566538950838433
0.5505969524 -0.09699654579 0.0007918965234190639 0.0011726355275668162
0.5559183955 -0.09699654579 0.0007271672692030162 0.0011735390130230045
0.5612398982 -0.09699654579 0.0006654896448994484 0.0011690618374730988
0.5665613413 -0.09699654579 0.0006036401262043224 0.001164515232375865
0.5718827844 -0.09699654579 0.0005403863865935685 0.0011537906397088018
0.5772042274 -0.09699654579 0.0004829626029395014 0.0011347209766249828
0.5825257301 -0.09699654579 0.0004254784886538386 0.0011156605999632831
0.5878471732 -0.09699654579 0.00036830933680549835 0.0010910047423025233
0.5931686163 -0.09699654579 0.0003184088962087344 0.0010607184759489215
0.5984900594 -0.09699654579 0.0002673955665727152 0.001028885027821491
0.6038115621 -0.09699654579 0.00022157091703200535 0.0009923224446967008
0.6091330051 -0.09699654579 0.00017798303988807572 0.0009516436574373686
0.6144544482 -0.09699654579 0.0001369905039672199 0.0009109427445116573
0.6197758913 -0.09699654579 0.00010262203566354149 0.000866048973241503
0.625097394 -0.09699654579 7.013051349841808e-05 0.0008210609695570654
0.6304188371 -0.09699654579 4.185733566389197e-05 0.0007732596350114228
0.6357402802 -0.09699654579 1.5674028887131022e-05 0.0007243498162063473
0.6410617828 -0.09699654579 -4.531838488818286e-06 0.0006778475888665334
0.6463832259 -0.09699654579 -2.0807174178608032e-05 0.0006304702946442237
0.651704669 -0.09699654579 -3.291753759366483e-05 0.0005846404344496555
0.6570261121 -0.09699654579 -4.155888420120245e-05 0.0005422523081112706
0.6623476148 -0.09699654579 -4.85948093119295e-05 0.0005018962553730362
0.6676690578 -0.09699654579 -5.353060337231419e-05 0.0004622637343034433
0.6729905009 -0.09699654579 -5.555418137455889e-05 0.0004278302662752099
0.678311944 -0.09699654579 -5.669410628996878e-05 0.00039711692809539956
0.6836334467 -0.09699654579 -5.889315373914906e-05 0.00036999561579136963
0.6889548898 -0.09699654579 -6.164158318604046e-05 0.0003484433221308768
0.6942763329 -0.09699654579 -6.784792386980994e-05 0.0003290803598196376
0.6995977759 -0.09699654579 -7.664887423962194e-05 0.00031379164840428556
0.7049192786 -0.09699654579 -8.845780346485163e-05 0.0003024239735045449
0.7102407217 -0.09699654579 -0.0001057807445707248 0.00029271823895917756
0.7155621648 -0.09699654579 -0.0001305050846062526 0.00028528804307071136
0.7208836079 -0.09699654579 -0.00016241456557330644 0.0002786412856484487
0.7262051105 -0.09699654579 -0.00020031560007469288 0.00027098638757629785
0.7315265536 -0.09699654579 -0.000245051692834417 0.00026356394049109166
0.7368479967 -0.09699654579 -0.0002993857402343943 0.0002486053234488237
0.7421694398 -0.09699654579 -0.0003607522860902142 0.0002277078945133315
0.7474909425 -0.09699654579 -0.0004285532869110049 0.00020066380215738897
0.7528123856 -0.09699654579 -0.0005042601704030946 0.0001643879529520437
0.7581338286 -0.09699654579 -0.0005814550323399512 0.00012174669084831627
-0.3008363545 -0.09367749095 -0.00034847121795884253 0.0011160112822193424
-0.2955148816 -0.09367749095 -0.0003722680602843788 0.0011244147353925704
-0.2901934385 -0.09367749095 -0.0004053220637289838 0.001138937885701289
-0.2848719656 -0.09367749095 -0.0004332967302046153 0.00114327625937734
-0.2795505226 -0.09367749095 -0.0004803139722713076 0.0011468647552572895
-0.2742290497 -0.09367749095 -0.000530803752427931 0.0011404582316780953
-0.2689076066 -0.09367749095 -0.0005880825712195408 0.0011354129004065231
-0.2635861337 -0.09367749095 -0.0006517258989162372 0.0011181401219085183
-0.2582646906 -0.09367749095 -0.0006844577532521834 0.0010881002055159337
-0.2529432178 -0.09367749095 -0.0007221605453662849 0.0010470163392504697
-0.2476217598 -0.09367749095 -0.0007601069008917015 0.0009910255847496864
-0.2423003018 -0.09367749095 -0.0007801350647629337 0.0009025451807037042