VARIABLES = X,Y,phix,phiy
ZONE I=200,J=200,F=POINT 
-0.3008363545 -0.1003156006 0.0002365228152169889 0.00022927400607807816
-0.2955148816 -0.1003156006 0.00019485300917988633 0.0002428440387214317
-0.2901934385 -0.1003156006 0.00015447099299174087 0.0002558803052056657
-0.2848719656 -0.1003156006 0.00011231305113210443 0.0002652850021385629
-0.2795505226 -0.1003156006 6.637558971038854e-05 0.000269398270867942
-0.2742290497 -0.1003156006 1.7054736157516357e-05 0.00027301488428629623
-0.2689076066 -0.1003156006 -3.122186117550652e-05 0.00027357673955990175
-0.2635861337 -0.1003156006 -6.10988951781953e-05 0.0002807044178400838
-0.2582646906 -0.1003156006 -7.810493053879865e-05 0.0002890121301512763
-0.2529432178 -0.1003156006 -8.864968180186354e-05 0.00029394555428668154
-0.2476217598 -0.1003156006 -9.17443529372169e-05 0.00028065364421776156
-0.2423003018 -0.1003156006 -8.614452135593718e-05 0.00024137282929569234
-0.2369788438 -0.1003156006 -8.14665877307397e-05 0.00021573635533945448
-0.2316573858 -0.1003156006 -7.472315519846521e-05 0.00019734927860389317
-0.2263359278 -0.1003156006 -6.544502177676464e-05 0.00018583610717018978
-0.2210144699 -0.1003156006 -9.901675316000106e-05 0.00020951444771240773
-0.2156930119 -0.1003156006 -0.00013754706309689166 0.00024311516962779314
-0.2103715539 -0.1003156006 -0.00018473189149991235 0.0002896378023138401
-0.2050500959 -0.1003156006 -0.0002119249696258539 0.0002904927435333327
-0.1997286379 -0.1003156006 -0.00024417937682736393 0.0003008243483022439
-0.19440718 -0.1003156006 -0.0002856089006498795 0.0002960511873816511
-0.189085722 -0.1003156006 -0.00032488171637857556 0.0002616491309722929
-0.183764264 -0.1003156006 -0.0003567569867061119 0.0002107217054995167
-0.178442806 -0.1003156006 -0.00039177778791546925 0.00016497453181369974
-0.173121348 -0.1003156006 -0.0004035367960015776 0.00012840454601114573
-0.16779989 -0.1003156006 -0.00040988956512904575 0.00010109802145927384
-0.1624784321 -0.1003156006 -0.00040688101221848495 6.536462241525035e-05
-0.1571569741 -0.1003156006 -0.00039919518231097266 3.5871200973067685e-05
-0.1518355161 -0.1003156006 -0.00038329463397169026 9.932103698255606e-06
-0.1465140581 -0.1003156006 -0.0003665154269942604 -1.7679251326689862e-05
-0.1411926001 -0.1003156006 -0.000350897773790404 -4.266520029298925e-05
-0.1358711421 -0.1003156006 -0.00034602071677409835 -5.79451014185652e-05
-0.1305496842 -0.1003156006 -0.00034087888767203253 -7.321606194649815e-05
-0.1252282262 -0.1003156006 -0.00033158168856652537 -8.669531529957505e-05
-0.1199067682 -0.1003156006 -0.00032147005949006893 -9.554721135618217e-05
-0.1145853102 -0.1003156006 -0.0003116523878364496 -0.00010204000980639221
-0.1092638522 -0.1003156006 -0.0003005518084499925 -0.00010798060343960424
-0.1039423943 -0.1003156006 -0.0002904276755783822 -0.00011508813447329791
-0.09862093627 -0.1003156006 -0.00029343135980211137 -0.00010794560674916695
-0.09329947084 -0.1003156006 -0.0002976286818248896 -9.913746016199703e-05
-0.08797801286 -0.1003156006 -0.00030206656773946517 -9.033324640733692e-05
-0.08265655488 -0.1003156006 -0.00030640424794617507 -8.177955301203795e-05
-0.0773350969 -0.1003156006 -0.0003178850076893686 -8.305542930092688e-05
-0.07201363891 -0.1003156006 -0.0003295632168590705 -8.460289687510108e-05
-0.06669218093 -0.1003156006 -0.0003411614223985927 -8.614730588779472e-05
-0.06137072667 -0.1003156006 -0.0003518075585837033 -8.82370748304025e-05
-0.05604926869 -0.1003156006 -0.0003535809749968446 -9.423017930602182e-05
-0.05072781071 -0.1003156006 -0.0003543531329048799 -0.00010056609648945312
-0.045406349 -0.1003156006 -0.00035497033238070247 -0.00010714795101611054
-0.04008489102 -0.1003156006 -0.0003555520080991098 -0.00011360046645482695
-0.03476343304 -0.1003156006 -0.0003573344163568268 -0.0001175727138039566
-0.02944197692 -0.1003156006 -0.0003640435995363833 -0.00011496770846295132
-0.02412051894 -0.1003156006 -0.0003707792513665328 -0.00011223823684884818
-0.01879905909 -0.1003156006 -0.00037726466750654156 -0.00010916368218773513
-0.01347760204 -0.1003156006 -0.0003837888709171392 -0.00010646003361676412
-0.00815614406 -0.1003156006 -0.00039285367377645214 -0.00010508209996722952
-0.00283468538 -0.1003156006 -0.00040503621027708465 -0.00010450624204554855
0.002486772602 -0.1003156006 -0.0004170277348984913 -0.00010354510472964133
0.007808230817 -0.1003156006 -0.0004289875628289922 -0.00010263459644550947
0.0131296888 -0.1003156006 -0.0004407980677428107 -0.00010195792729899275
0.01845114678 -0.1003156006 -0.00045728433208926014 -0.00010419407405529752
0.02377260476 -0.1003156006 -0.00047770882613391185 -0.00010867640762109508
0.02909406275 -0.1003156006 -0.0004983016718200479 -0.00011302777349371134
0.03441552073 -0.1003156006 -0.0005189852224455012 -0.00011738170704304104
0.03973697871 -0.1003156006 -0.0005399150848544715 -0.00012184134152776753
0.04505843669 -0.1003156006 -0.0005522229678003695 -0.00013103418070277835
0.05037989467 -0.1003156006 -0.0005581244379544532 -0.00014556464160442157
0.05570135266 -0.1003156006 -0.0005636332985911086 -0.00016074156110294644
0.06102281436 -0.1003156006 -0.0005688626574419842 -0.00017566125202604562
0.06634426862 -0.1003156006 -0.0005745598098245798 -0.0001902901311899377
0.0716657266 -0.1003156006 -0.0005808972751953344 -0.00020469293657496154
0.07698718458 -0.1003156006 -0.0006007955597959101 -0.00021059979226814265
0.08230864257 -0.1003156006 -0.0006224704042716145 -0.00021571535749451246
0.08763010055 -0.1003156006 -0.0006443387893751251 -0.00022032434744762703
0.09295155853 -0.1003156006 -0.0006659326757717268 -0.00022554807521084697
0.09827301651 -0.1003156006 -0.0006869982683454721 -0.00023109214556987954
0.1035944745 -0.1003156006 -0.0007038326674888813 -0.000250219438928111
0.1089159325 -0.1003156006 -0.0007157660344711626 -0.0002966136925229403
0.1142373979 -0.1003156006 -0.0007279644538785243 -0.00034299251431176296
0.1195588559 -0.1003156006 -0.0007385206697506292 -0.00038634139774407943
0.1248803139 -0.1003156006 -0.0007499211531971386 -0.0004309979893733572
0.1302017719 -0.1003156006 -0.0007616095507093877 -0.0004760489698607167
0.1355232298 -0.1003156006 -0.0007396393734647639 -0.0005170104383675021
0.1408446878 -0.1003156006 -0.0006947190535038258 -0.0005543802826788602
0.1461661458 -0.1003156006 -0.000652659871664844 -0.0005894898576053852
0.1514876038 -0.1003156006 -0.0006107690803418343 -0.0006246000643888252
0.1568090618 -0.1003156006 -0.0005688015962161819 -0.0006597107276239703
0.1621305197 -0.1003156006 -0.0005268048219224775 -0.0006948675630798452
0.1674519777 -0.1003156006 -0.0004836506080411436 -0.0006814255856332905
0.1727734357 -0.1003156006 -0.00044079935969131695 -0.0006470258217049596
0.1780948937 -0.1003156006 -0.00039771603284580545 -0.0006126410573486875
0.1834163517 -0.1003156006 -0.00035482167001211573 -0.0005782445549370621
0.1887378097 -0.1003156006 -0.00031341704050335466 -0.0005450936272739015
0.1940592676 -0.1003156006 -0.0002744500354767221 -0.0005144506183129016
0.1993807256 -0.1003156006 -0.0002737050185878079 -0.00048342491796505145
0.2047021836 -0.1003156006 -0.00028583454519524203 -0.0004521804868836718
0.2100236416 -0.1003156006 -0.0002970978806292733 -0.00042105955155693825
0.2153450996 -0.1003156006 -0.0003084063928548632 -0.0003926941459785606
0.2206665576 -0.1003156006 -0.0003195718994880114 -0.0003631299299897724
0.2259880155 -0.1003156006 -0.00033087151983775086 -0.0003336106168060957
0.2313094735 -0.1003156006 -0.0003556251726944712 -0.0003226322487337277
0.2366309315 -0.1003156006 -0.00038313064237367934 -0.0003177243345850637
0.2419523895 -0.1003156006 -0.00040940482273704894 -0.00031259541062125167
0.2472738475 -0.1003156006 -0.00043602680209612346 -0.00030737477580613566
0.2525953054 -0.1003156006 -0.0004625494362728421 -0.0003021334646277202
0.2579167783 -0.1003156006 -0.00048761993083536203 -0.0002974810432658317
0.2632382214 -0.1003156006 -0.0005070957514643921 -0.00030971899320426726
0.2685596943 -0.1003156006 -0.0005255532072938945 -0.00032690277311924674
0.2738811374 -0.1003156006 -0.000545486580977903 -0.0003446112893239682
0.2792026103 -0.1003156006 -0.0005644909672348491 -0.0003619229994898693
0.2845240533 -0.1003156006 -0.0005814512960721333 -0.0003777995802583303
0.2898455262 -0.1003156006 -0.0005987082576309025 -0.000393678505276895
0.2951669693 -0.1003156006 -0.0005937884453817002 -0.0004137067344063936
0.3004884422 -0.1003156006 -0.0005859834556985996 -0.00043433115794521126
0.3058098853 -0.1003156006 -0.0005793999854994501 -0.0004526676093704856
0.3111313581 -0.1003156006 -0.0005729749965092682 -0.0004710202966957478
0.3164528012 -0.1003156006 -0.0005661085044718802 -0.0004893667314851077
0.3217742741 -0.1003156006 -0.0005591386668185934 -0.0005074279775627688
0.3270957172 -0.1003156006 -0.0005441309189086938 -0.000504242765194695
0.3324171901 -0.1003156006 -0.0005288202917178452 -0.0005011349024838147
0.3377386332 -0.1003156006 -0.0005136793177915652 -0.0004979730216577522
0.343060106 -0.1003156006 -0.0004982267158437476 -0.0004948700823182487
0.3483815491 -0.1003156006 -0.0004835573630254279 -0.0004924739645751007
0.353703022 -0.1003156006 -0.0004738014330296463 -0.0004884386893575983
0.3590244651 -0.1003156006 -0.00047513175813409234 -0.00048061305968719856
0.364345938 -0.1003156006 -0.0004762429137259905 -0.00047275784179589853
0.369667381 -0.1003156006 -0.0004763811793576064 -0.00046576883662920193
0.3749888539 -0.1003156006 -0.0004767461704711478 -0.0004584789920492438
0.380310297 -0.1003156006 -0.0004772461200743044 -0.0004512193320941332
0.3856317699 -0.1003156006 -0.00048300441897658903 -0.00044694983067713556
0.390953213 -0.1003156006 -0.0004890568323303133 -0.0004444518720208683
0.3962746859 -0.1003156006 -0.0004946877359866394 -0.0004415319306777801
0.4015961289 -0.1003156006 -0.0005002838738128098 -0.00043870334577763794
0.4069176018 -0.1003156006 -0.0005062165726697216 -0.0004357012057454425
0.4122390449 -0.1003156006 -0.0005121986478193072 -0.0004351081774415426
0.4175605178 -0.1003156006 -0.0005209247142771197 -0.0004363552614809297
0.4228819609 -0.1003156006 -0.0005295623765047457 -0.0004368534343613389
0.4282034338 -0.1003156006 -0.0005388034425662596 -0.0004374995154381208
0.4335248768 -0.1003156006 -0.0005466272426431978 -0.00043905871112550157
0.4388463497 -0.1003156006 -0.0005551830540083764 -0.00044200979396712484
0.4441677928 -0.1003156006 -0.000567221786328312 -0.0004501128854198633
0.4494892657 -0.1003156006 -0.0005784095112606624 -0.0004583647599511183
0.4548107088 -0.1003156006 -0.000588516397949545 -0.00046692021371737665
0.4601321816 -0.1003156006 -0.0005998402378027877 -0.00047522729471388746
0.4654536247 -0.1003156006 -0.0006106716112140905 -0.0004891894504320327
0.4707750976 -0.1003156006 -0.0006193762890219576 -0.0005114197698076954
0.4760965407 -0.1003156006 -0.0006270882764216537 -0.0005323285684097963
0.4814180136 -0.1003156006 -0.0006342067711842691 -0.0005532104473175549
0.4867394567 -0.1003156006 -0.0006414137816778754 -0.0005740953166141453
0.4920609295 -0.1003156006 -0.0006352344193057528 -0.0006015922860711076
0.4973823726 -0.1003156006 -0.0006246496388473418 -0.0006301029983690168
0.5027038455 -0.1003156006 -0.0006157443042688956 -0.0006588936173808232
0.5080252886 -0.1003156006 -0.0006066683251382286 -0.0006876582476131393
0.5133467317 -0.1003156006 -0.0005915373675519079 -0.0007081146017819175
0.5186682343 -0.1003156006 -0.0005627353708618679 -0.000723768087465668
0.5239896774 -0.1003156006 -0.0005338027069751489 -0.0007394570212814674
0.5293111205 -0.1003156006 -0.0005065266932227201 -0.0007547060586281929
0.5346325636 -0.1003156006 -0.0004806550049014379 -0.0007604933255061244
0.5399540663 -0.1003156006 -0.000449132446451674 -0.0007559154380119172
0.5452755094 -0.1003156006 -0.00041604497952850514 -0.0007511724769068787
0.5505969524 -0.1003156006 -0.0003865149475182013 -0.0007466279053699146
0.5559183955 -0.1003156006 -0.00036155736177414594 -0.0007314393823188446
0.5612398982 -0.1003156006 -0.00033251975691167665 -0.0007111933681910083
0.5665613413 -0.1003156006 -0.0003043644255426644 -0.0006912458445013304
0.5718827844 -0.1003156006 -0.0002827555473526866 -0.0006680162056653682
0.5772042274 -0.1003156006 -0.00025959871346583447 -0.00063650495751207
0.5825257301 -0.1003156006 -0.00023675013296896598 -0.0006047967536931672
0.5878471732 -0.1003156006 -0.00021795070077535678 -0.000569053664588611
0.5931686163 -0.1003156006 -0.00020152152822299282 -0.0005259819336769669
0.5984900594 -0.1003156006 -0.0001849457627054055 -0.0004827631926202207
0.6038115621 -0.1003156006 -0.00017154286685392008 -0.00043059235755524636
0.6091330051 -0.1003156006 -0.00016016920365179445 -0.00037715185311319277
0.6144544482 -0.1003156006 -0.00014801291911131567 -0.0003161007204499008
0.6197758913 -0.1003156006 -0.00014036083556331653 -0.0002501729556156785
0.625097394 -0.1003156006 -0.0001339025683258863 -0.00017917497311430226
0.6304188371 -0.1003156006 -0.00012928415791235284 -9.828515688272621e-05
0.6357402802 -0.1003156006 -0.00013177426067840966 -1.4577622185012302e-05
0.6410617828 -0.1003156006 -0.00013845161084384772 7.808315010942708e-05
0.6463832259 -0.1003156006 -0.00014871237937939791 0.00017825167658955406
0.651704669 -0.1003156006 -0.00016048159107880756 0.00028469467860047393
0.6570261121 -0.1003156006 -0.00018431013789871458 0.00040132134370357775
0.6623476148 -0.1003156006 -0.0002137206294606529 0.0005274383896869032
0.6676690578 -0.1003156006 -0.0002497631612667165 0.0006620078516523768
0.6729905009 -0.1003156006 -0.00030247461552935134 0.0008111136579367965
0.678311944 -0.1003156006 -0.00036717871592836207 0.0009656166252618626
0.6836334467 -0.1003156006 -0.0004430748243715633 0.001130582373240827
0.6889548898 -0.1003156006 -0.000536882950949979 0.0013088194147016072
0.6942763329 -0.1003156006 -0.0006499001109226882 0.0014948279633341139
0.6995977759 -0.1003156006 -0.0007815494993824819 0.0016881198668823858
0.7049192786 -0.1003156006 -0.0009371750233792415 0.0018888789936380706
0.7102407217 -0.1003156006 -0.0011190188298446431 0.0020977637165330745
0.7155621648 -0.1003156006 -0.0013332414377584963 0.0023086089324375484
0.7208836079 -0.1003156006 -0.0015758306283879613 0.002516480259212434
0.7262051105 -0.1003156006 -0.0018477989087736571 0.0027229024640226893
0.7315265536 -0.1003156006 -0.0021585728573884602 0.0029249181170263685
0.7368479967 -0.1003156006 -0.002516462437204097 0.003113681164835547
0.7421694398 -0.1003156006 -0.002911367585185895 0.003292556315471446
0.7474909425 -0.1003156006 -0.003326118488856061 0.0034416476885499665
0.7528123856 -0.1003156006 -0.003793612121789554 0.0035692012161240814
0.7581338286 -0.1003156006 -0.004300381265677107 0.003667222029936005
-0.3008363545 -0.09699654579 0.0002441862247296274 0.00024898822718723437
-0.2955148816 -0.09699654579 0.00021118495841358266 0.00026945224784180903
-0.2901934385 -0.09699654579 0.00015413402845241257 0.00028061887962658257
-0.2848719656 -0.09699654579 0.0001095784224834488 0.0002870828698017513
-0.2795505226 -0.09699654579 6.697786090699294e-05 0.0002940425267826326
-0.2742290497 -0.09699654579 2.252385706204216e-05 0.00029579037905724164
-0.2689076066 -0.09699654579 -2.673822691770483e-05 0.00029651963160825894
-0.2635861337 -0.09699654579 -7.755129305240968e-05 0.00029795630407431883
-0.2582646906 -0.09699654579 -9.161660767999141e-05 0.00030919558200979264
-0.2529432178 -0.09699654579 -0.0001040957672313404 0.000305095658975388
-0.2476217598 -0.09699654579 -9.209714470017506e-05 0.0002757627475489887
-0.2423003018 -0.09699654579 -8.880346339414922e-05 0.00023884418905050221
-0.2369788438 -0.09699654579 -9.451677214749734e-05 0.00021767312696889405
-0.2316573858 -0.09699654579 -7.786179637530915e-05 0.00020276375322354076
-0.2263359278 -0.09699654579 -5.5560790025101094e-05 0.00019085100718269256
-0.2210144699 -0.09699654579 -8.876187258896472e-05 0.00021231918347495933
-0.2156930119 -0.09699654579 -0.0001355693212908492 0.0002550687703266603
-0.2103715539 -0.09699654579 -0.00018750688665829568 0.00031880270083815403
-0.2050500959 -0.09699654579 -0.00022779388171047683 0.0003400045269207601
-0.1997286379 -0.09699654579 -0.0002693793266492448 0.0003345537658319947
-0.19440718 -0.09699654579 -0.0003171575436086487 0.0003242650098324606
-0.189085722 -0.09699654579 -0.00036449961160232104 0.00029181608279536873
-0.183764264 -0.09699654579 -0.00040028285875862195 0.00025274073820617235
-0.178442806 -0.09699654579 -0.00044400988461345826 0.00020749243760858613
-0.173121348 -0.09699654579 -0.0004559686468441627 0.0001683523977664941
-0.16779989 -0.09699654579 -0.00045268563675347604 0.00012713854660742713
-0.1624784321 -0.09699654579 -0.00045594470009880294 8.057146358554487e-05
-0.1571569741 -0.09699654579 -0.00044561355217264016 3.3947418123700673e-05
-0.1518355161 -0.09699654579 -0.00043155571044499393 1.9489311593118336e-06
-0.1465140581 -0.09699654579 -0.00040955647209158245 -2.7341248878211518e-05
-0.1411926001 -0.09699654579 -0.0003917884239909738 -5.468492490162207e-05
-0.1358711421 -0.09699654579 -0.0003817679677765588 -6.787262723745572e-05
-0.1305496842 -0.09699654579 -0.00037037296921773184 -8.070212995005804e-05
-0.1252282262 -0.09699654579 -0.0003604696170526448 -9.376103660756129e-05
-0.1199067682 -0.09699654579 -0.00034810617433986534 -0.00010084421267644839
-0.1145853102 -0.09699654579 -0.0003395822824182684 -0.00010748048600489935
-0.1092638522 -0.09699654579 -0.00032920872268573314 -0.0001132056513432551
-0.1039423943 -0.09699654579 -0.00031619632370613604 -0.00011878771699045972
-0.09862093627 -0.09699654579 -0.00032168292123674867 -0.00010934807849642286
-0.09329947084 -0.09699654579 -0.00032731538866323176 -9.886312270579253e-05
-0.08797801286 -0.09699654579 -0.0003330040991868032 -8.735765384688376e-05
-0.08265655488 -0.09699654579 -0.00033877756730563304 -7.75411814493985e-05
-0.0773350969 -0.09699654579 -0.00034883407694365535 -7.957758489835204e-05
-0.07201363891 -0.09699654579 -0.0003587465152448884 -8.26489120077924e-05
-0.06669218093 -0.09699654579 -0.00036774987834886484 -8.577942291314674e-05
-0.06137072667 -0.09699654579 -0.00037418582813697417 -8.874236275860602e-05
-0.05604926869 -0.09699654579 -0.0003721177042608415 -9.445616605346487e-05
-0.05072781071 -0.09699654579 -0.0003696784472103844 -0.00010078358625421661
-0.045406349 -0.09699654579 -0.00036745452563895887 -0.00010711089673849983
-0.04008489102 -0.09699654579 -0.00036431807564696843 -0.00011314175800778842
-0.03476343304 -0.09699654579 -0.0003624921463195995 -0.00011638597364402168
-0.02944197692 -0.09699654579 -0.0003668116058253576 -0.00011243454832166595
-0.02412051894 -0.09699654579 -0.0003711676819050922 -0.00010864115863237936
-0.01879905909 -0.09699654579 -0.0003751238068434477 -0.0001046658396493856
-0.01347760204 -0.09699654579 -0.0003793133743551149 -0.00010035273292816307
-0.00815614406 -0.09699654579 -0.0003868425744388114 -9.78909748855482e-05
-0.00283468538 -0.09699654579 -0.0003975618684136863 -9.660378220818446e-05
0.002486772602 -0.09699654579 -0.00040840991325535414 -9.517927994459156e-05
0.007808230817 -0.09699654579 -0.0004191099863118321 -9.356264362948567e-05
0.0131296888 -0.09699654579 -0.0004300781866732071 -9.219741140172128e-05
0.01845114678 -0.09699654579 -0.0004463916871562303 -9.414964813462501e-05
0.02377260476 -0.09699654579 -0.0004675765022193848 -9.848223887936874e-05
0.02909406275 -0.09699654579 -0.0004890413640857999 -0.00010303340315118435
0.03441552073 -0.09699654579 -0.0005107881442849134 -0.00010753567391098624
0.03973697871 -0.09699654579 -0.0005320368873593183 -0.00011201529311751641
0.04505843669 -0.09699654579 -0.0005438897859835359 -0.00012163431440030925
0.05037989467 -0.09699654579 -0.0005485669745360674 -0.00013700500530539007
0.05570135266 -0.09699654579 -0.0005531931271680578 -0.00015271213314410956
0.06102281436 -0.09699654579 -0.0005568745495757959 -0.00016834318835545094
0.06634426862 -0.09699654579 -0.0005615802905917862 -0.00018359525568662524
0.0716657266 -0.09699654579 -0.0005664626170556819 -0.0001988439563182959
0.07698718458 -0.09699654579 -0.0005903184648791624 -0.0002023096001341095
0.08230864257 -0.09699654579 -0.0006154589654989987 -0.00020497140741647263
0.08763010055 -0.09699654579 -0.0006404579238771691 -0.0002082385340099128
0.09295155853 -0.09699654579 -0.0006648773770273451 -0.00021170994159908698
0.09827301651 -0.09699654579 -0.0006897098454478332 -0.00021488753756493674
0.1035944745 -0.09699654579 -0.0007103906743962358 -0.00023550367866099448
0.1089159325 -0.09699654579 -0.0007274787990232893 -0.00028802674382485434
0.1142373979 -0.09699654579 -0.0007435061926117758 -0.00033865665143851343
0.1195588559 -0.09699654579 -0.0007587672149624773 -0.000387415782469131
0.1248803139 -0.09699654579 -0.0007737348317186987 -0.0004361606007539193
0.1302017719 -0.09699654579 -0.0007896425884559747 -0.0004866833209739471
0.1355232298 -0.09699654579 -0.0007655776279003559 -0.0005328954300010818
0.1408446878 -0.09699654579 -0.0007194858816697354 -0.0005729404954532086
0.1461661458 -0.09699654579 -0.0006733332460107013 -0.0006127769277464778
0.1514876038 -0.09699654579 -0.0006242510179142804 -0.0006526909029120184
0.1568090618 -0.09699654579 -0.0005757101379281442 -0.0006925962611124906
0.1621305197 -0.09699654579 -0.0005292388393648733 -0.0007309501548809503
0.1674519777 -0.09699654579 -0.00048237772650442436 -0.00071252663686848
0.1727734357 -0.09699654579 -0.0004353544273919305 -0.0006736956548736958
0.1780948937 -0.09699654579 -0.0003867942861976842 -0.0006333657441825219
0.1834163517 -0.09699654579 -0.0003385377454719571 -0.000593508727097598
0.1887378097 -0.09699654579 -0.0002949392584504751 -0.0005569997418302056
0.1940592676 -0.09699654579 -0.00025146622979086943 -0.0005205009127671386
0.1993807256 -0.09699654579 -0.00025410446742250853 -0.0004848291707082983
0.2047021836 -0.09699654579 -0.0002693897356634686 -0.0004492568830518989
0.2100236416 -0.09699654579 -0.00028428560964587356 -0.00041639985848443845
0.2153450996 -0.09699654579 -0.00029868340010365355 -0.0003837078392293695
0.2206665576 -0.09699654579 -0.0003134942773640661 -0.00035104080265511636
0.2259880155 -0.09699654579 -0.0003282771590719975 -0.0003183388866367124
0.2313094735 -0.09699654579 -0.0003558153775430642 -0.0003075992184383096
0.2366309315 -0.09699654579 -0.0003864734130816117 -0.0003017991612921826
0.2419523895 -0.09699654579 -0.00041708466320379756 -0.00029597118790111043
0.2472738475 -0.09699654579 -0.0004477467606831163 -0.0002901614073845891
0.2525953054 -0.09699654579 -0.0004769257744319399 -0.0002849971271485912
0.2579167783 -0.09699654579 -0.0005044696566614499 -0.00027968245966612733
0.2632382214 -0.09699654579 -0.000526477898182669 -0.00029513262969614097
0.2685596943 -0.09699654579 -0.000547695163258166 -0.00031518187874291046
0.2738811374 -0.09699654579 -0.00056821461160699 -0.0003342426709170943
0.2792026103 -0.09699654579 -0.0005888543154983604 -0.0003517865500597586
0.2845240533 -0.09699654579 -0.0006090810591240726 -0.00036976922277287506
0.2898455262 -0.09699654579 -0.0006296563646614387 -0.0003882557451663494
0.2951669693 -0.09699654579 -0.0006237184841634204 -0.0004105073603390879
0.3004884422 -0.09699654579 -0.0006170563434881456 -0.0004319628434711898
0.3058098853 -0.09699654579 -0.0006084632146367528 -0.00045380140926560685
0.3111313581 -0.09699654579 -0.0005998888067215369 -0.0004756428531177946
0.3164528012 -0.09699654579 -0.0005921308892273863 -0.0004966653448377701
0.3217742741 -0.09699654579 -0.000583618866985554 -0.00051466174654726
0.3270957172 -0.09699654579 -0.0005674253399104993 -0.0005105966717585217
0.3324171901 -0.09699654579 -0.0005509947529414912 -0.0005065104865289696
0.3377386332 -0.09699654579 -0.0005352738153989455 -0.0005027105681671818
0.343060106 -0.09699654579 -0.000520044164135539 -0.0004993763047964108
0.3483815491 -0.09699654579 -0.0005047356550456635 -0.0004959590401053819
0.353703022 -0.09699654579 -0.0004968237483966156 -0.0004905101171534984
0.3590244651 -0.09699654579 -0.0005007386622682212 -0.0004816382271327353
0.364345938 -0.09699654579 -0.0005042308128214349 -0.00047370994232175665
0.369667381 -0.09699654579 -0.0005078912545667134 -0.0004657774054430579
0.3749888539 -0.09699654579 -0.000510016626909303 -0.0004575930037859122
0.380310297 -0.09699654579 -0.0005113936747420578 -0.00044967530140575205
0.3856317699 -0.09699654579 -0.0005171895808165944 -0.0004455718440881282
0.390953213 -0.09699654579 -0.0005246102800448794 -0.0004424584967592877
0.3962746859 -0.09699654579 -0.0005323567201740501 -0.0004386319245289676
0.4015961289 -0.09699654579 -0.0005392832517292698 -0.00043561404188393536
0.4069176018 -0.09699654579 -0.0005452565128041075 -0.0004324746247928125
0.4122390449 -0.09699654579 -0.0005531260771519488 -0.00043063646823695006
0.4175605178 -0.09699654579 -0.0005629939113307569 -0.0004304276033272589
0.4228819609 -0.09699654579 -0.0005714639861242823 -0.00043129619483643183
0.4282034338 -0.09699654579 -0.0005803403658132031 -0.00043181692767850456
0.4335248768 -0.09699654579 -0.0005889939926233832 -0.0004328778970697935
0.4388463497 -0.09699654579 -0.0005995480527605483 -0.00043505129093899
0.4441677928 -0.09699654579 -0.0006113121584568309 -0.00044298308567846084
0.4494892657 -0.09699654579 -0.0006241452993465954 -0.00045059175910207967
0.4548107088 -0.09699654579 -0.0006369524561202946 -0.00045843185648526924
0.4601321816 -0.09699654579 -0.0006489027589806091 -0.00046640553687370676
0.4654536247 -0.09699654579 -0.0006598919917382288 -0.0004807180295944893
0.4707750976 -0.09699654579 -0.0006698615169576955 -0.0005042027781116081
0.4760965407 -0.09699654579 -0.0006813095301312794 -0.0005292226849151152
0.4814180136 -0.09699654579 -0.0006912074721394349 -0.0005527785582359035
0.4867394567 -0.09699654579 -0.0007003344069533093 -0.0005752222176030108
0.4920609295 -0.09699654579 -0.0006924809407914049 -0.0006057724825501355
0.4973823726 -0.09699654579 -0.000679772818117834 -0.0006383864558073824
0.5027038455 -0.09699654579 -0.0006678698160654261 -0.0006684629945046258
0.5080252886 -0.09699654579 -0.0006559297882306464 -0.0006997526278040563
0.5133467317 -0.09699654579 -0.0006329116353744164 -0.000724735572117595
0.5186682343 -0.09699654579 -0.0005978156627856011 -0.0007418042797558587
0.5239896774 -0.09699654579 -0.00056733325857403 -0.0007570309053673375
0.5293111205 -0.09699654579 -0.0005349350377654804 -0.0007732099925243049
0.5346325636 -0.09699654579 -0.0004981744969304394 -0.0007804776038642673
0.5399540663 -0.09699654579 -0.0004625409765058273 -0.0007754102133072044
0.5452755094 -0.09699654579 -0.00042896988982264175 -0.0007704663965982725
0.5505969524 -0.09699654579 -0.0003930220251133466 -0.0007654420016550451
0.5559183955 -0.09699654579 -0.00035860208086927684 -0.0007486113809095838
0.5612398982 -0.09699654579 -0.0003298216137326723 -0.0007284052534389498
0.5665613413 -0.09699654579 -0.0003007138869020041 -0.0007080847705577211
0.5718827844 -0.09699654579 -0.0002693829157866142 -0.0006825102223727131
0.5772042274 -0.09699654579 -0.00024632332223568037 -0.0006509560606266059
0.5825257301 -0.09699654579 -0.00022307835251226204 -0.0006193970165128605
0.5878471732 -0.09699654579 -0.0001973164842310668 -0.0005820978466384434
0.5931686163 -0.09699654579 -0.00017878856378747895 -0.000538157741461203
0.5984900594 -0.09699654579 -0.00015685413621602373 -0.0004929828116757542
0.6038115621 -0.09699654579 -0.00013987438126790354 -0.0004406542319167313
0.6091330051 -0.09699654579 -0.0001209197588250625 -0.0003830182497358991
0.6144544482 -0.09699654579 -0.00010670890908101414 -0.0003234307352821483
0.6197758913 -0.09699654579 -9.46776067433366e-05 -0.00025341692919321273
0.625097394 -0.09699654579 -8.415318801701201e-05 -0.00018161492445146752
0.6304188371 -0.09699654579 -7.934747667514559e-05 -0.00010006503298589528
0.6357402802 -0.09699654579 -7.213504966167069e-05 -1.3212183326945465e-05
0.6410617828 -0.09699654579 -7.502284790792496e-05 7.924889385110176e-05
0.6463832259 -0.09699654579 -7.788222696761141e-05 0.00018298242103277038
0.651704669 -0.09699654579 -8.48144798819875e-05 0.0002937775032753264
0.6570261121 -0.09699654579 -0.0001033604350826461 0.0004170248600470783
0.6623476148 -0.09699654579 -0.00012787991042250633 0.0005472078350286767
0.6676690578 -0.09699654579 -0.00015995341449110767 0.0006886164169226428
0.6729905009 -0.09699654579 -0.0002039261461518693 0.0008417927291172144
0.678311944 -0.09699654579 -0.0002568551844650762 0.0010075253065423828
0.6836334467 -0.09699654579 -0.00032311941710622355 0.0011812463338096604
0.6889548898 -0.09699654579 -0.0004101270402780569 0.0013668423299249154
0.6942763329 -0.09699654579 -0.0005161228634639366 0.0015652434834798094
0.6995977759 -0.09699654579 -0.0006415501834333509 0.001776821791863068
0.7049192786 -0.09699654579 -0.0007925691104333725 0.001992740646139671
0.7102407217 -0.09699654579 -0.00097194850597958 0.0022162219695058406
0.7155621648 -0.09699654579 -0.0011883982379801519 0.0024453882310007317
0.7208836079 -0.09699654579 -0.0014346638301818843 0.002680915227441368
0.7262051105 -0.09699654579 -0.0017172401333067444 0.0029126481691513074
0.7315265536 -0.09699654579 -0.002033233401946399 0.0031328594748726416
0.7368479967 -0.09699654579 -0.0023905244471231686 0.0033523357673440534
0.7421694398 -0.09699654579 -0.0027923045060421455 0.003548432639160658
0.7474909425 -0.09699654579 -0.0032345102804776362 0.003731849139656418
0.7528123856 -0.09699654579 -0.003720492219827235 0.0038789927895592495
0.7581338286 -0.09699654579 -0.0042445496229373434 0.003995775429147677
-0.3008363545 -0.09367749095 0.00025453328290372555 0.00027223827994585215
-0.2955148816 -0.09367749095 0.00022139838452379048 0.00028877703289053686
-0.2901934385 -0.09367749095 0.00016678583066920673 0.0003070635988311918
-0.2848719656 -0.09367749095 0.0001123485607627752 0.0003139544159460803