VARIABLES = X,Y,phix,phiy
ZONE I=200,J=200,F=POINT 
-0.3008363545 -0.1003156006 0.00141197757228095 -0.0010310533948425461
-0.2955148816 -0.1003156006 0.0014090442249013407 -0.0010043447376322687
-0.2901934385 -0.1003156006 0.0014075424452600236 -0.0009785442248122424
-0.2848719656 -0.1003156006 0.0014072245284318834 -0.0009561253506599612
-0.2795505226 -0.1003156006 0.001413218573165825 -0.0009369604566129361
-0.2742290497 -0.1003156006 0.0014303158052467744 -0.000913872068944961
-0.2689076066 -0.1003156006 0.0014546900037585196 -0.0008957921842055576
-0.2635861337 -0.1003156006 0.0014612800307267641 -0.0008970203983613865
-0.2582646906 -0.1003156006 0.001466769393613096 -0.0008974567136670405
-0.2529432178 -0.1003156006 0.0014731229479826844 -0.0008957607079352985
-0.2476217598 -0.1003156006 0.001476434727791087 -0.0009014024627181429
-0.2423003018 -0.1003156006 0.0014719280155880878 -0.0008897563055832501
-0.2369788438 -0.1003156006 0.0014738735678610211 -0.0008592500583192659
-0.2316573858 -0.1003156006 0.0014752765426539727 -0.0008247328064618071
-0.2263359278 -0.1003156006 0.0014785277861626665 -0.0007877687670157839
-0.2210144699 -0.1003156006 0.0014880892024066626 -0.0007559487971823046
-0.2156930119 -0.1003156006 0.0014995105420614508 -0.0007168443646218215
-0.2103715539 -0.1003156006 0.001513407560717675 -0.0006728116226800689
-0.2050500959 -0.1003156006 0.0014679459200917088 -0.0006362231383292787
-0.1997286379 -0.1003156006 0.0014226051308597546 -0.000588765463286282
-0.19440718 -0.1003156006 0.0013661684596592224 -0.0005400677923158861
-0.189085722 -0.1003156006 0.0013481293122275001 -0.0005039693863255984
-0.183764264 -0.1003156006 0.001331720660181699 -0.0004714081556780289
-0.178442806 -0.1003156006 0.0013147030495166126 -0.000440743000355434
-0.173121348 -0.1003156006 0.0012683652645734218 -0.000406502687344846
-0.16779989 -0.1003156006 0.001218625831816985 -0.0003732081010420591
-0.1624784321 -0.1003156006 0.0011711184250389184 -0.00034238476108866095
-0.1571569741 -0.1003156006 0.0011282206116153698 -0.0003218548427906789
-0.1518355161 -0.1003156006 0.0010890584538795964 -0.0003088086965310105
-0.1465140581 -0.1003156006 0.0010488783173569346 -0.00029711911122772065
-0.1411926001 -0.1003156006 0.0010108312819757156 -0.0002886775618438959
-0.1358711421 -0.1003156006 0.0009731214692480033 -0.0002824246408209765
-0.1305496842 -0.1003156006 0.0009356880742538389 -0.00027615915267936513
-0.1252282262 -0.1003156006 0.0008972257670514357 -0.00026965823228520516
-0.1199067682 -0.1003156006 0.0008591386012272905 -0.0002587938602803774
-0.1145853102 -0.1003156006 0.0008218155040721666 -0.0002459111480415196
-0.1092638522 -0.1003156006 0.0007839574208414437 -0.0002340809690561494
-0.1039423943 -0.1003156006 0.0007466162005226605 -0.00022353547518874455
-0.09862093627 -0.1003156006 0.000718089676568224 -0.00021548382390803255
-0.09329947084 -0.1003156006 0.0006904798637527773 -0.00020791836639100255
-0.08797801286 -0.1003156006 0.0006627141145869283 -0.00020034154801822462
-0.08265655488 -0.1003156006 0.0006354394498508889 -0.00019351930875488352
-0.0773350969 -0.1003156006 0.0006057936227077636 -0.00019483430202304458
-0.07201363891 -0.1003156006 0.0005757280434560614 -0.00019641712619083252
-0.06669218093 -0.1003156006 0.0005455837477364258 -0.00019800048869282014
-0.06137072667 -0.1003156006 0.0005155108467434719 -0.00019880076780078067
-0.05604926869 -0.1003156006 0.00048096671504739764 -0.00020132786826338874
-0.05072781071 -0.1003156006 0.0004461256976017321 -0.00020386261924499715
-0.045406349 -0.1003156006 0.0004112427361346639 -0.00020658751681535887
-0.04008489102 -0.1003156006 0.0003754114840339798 -0.00020904865364545486
-0.03476343304 -0.1003156006 0.00034043675336935557 -0.00021116346598556337
-0.02944197692 -0.1003156006 0.00030638245279335675 -0.00021104325352548655
-0.02412051894 -0.1003156006 0.00027251918749061633 -0.0002109753547826253
-0.01879905909 -0.1003156006 0.00023905687304582045 -0.00021083829151015196
-0.01347760204 -0.1003156006 0.0002049143988257496 -0.00021077705504855875
-0.00815614406 -0.1003156006 0.00016867985894675563 -0.0002144348334979174
-0.00283468538 -0.1003156006 0.00012977176430742902 -0.00022057918798980964
0.002486772602 -0.1003156006 8.983495271289513e-05 -0.0002261757912867613
0.007808230817 -0.1003156006 5.00960969187665e-05 -0.00023182492771579017
0.0131296888 -0.1003156006 1.0737957998788104e-05 -0.00023784231292961434
0.01845114678 -0.1003156006 -2.7494028294514604e-05 -0.00025637142713581725
0.02377260476 -0.1003156006 -6.577757564330373e-05 -0.0002847065181810789
0.02909406275 -0.1003156006 -0.00010477612757092499 -0.0003141276301291328
0.03441552073 -0.1003156006 -0.000143852519534083 -0.0003435572914666089
0.03973697871 -0.1003156006 -0.0001820159782328087 -0.0003720233500782113
0.04505843669 -0.1003156006 -0.00020600832529831908 -0.00040068486314609133
0.05037989467 -0.1003156006 -0.0002121328469880722 -0.0004286600469664849
0.05570135266 -0.1003156006 -0.00021790533083461291 -0.00045787345261888153
0.06102281436 -0.1003156006 -0.00022310862061307812 -0.00048702233827591427
0.06634426862 -0.1003156006 -0.00022906100244990876 -0.0005152667262426177
0.0716657266 -0.1003156006 -0.00023514902834037658 -0.0005429706564378868
0.07698718458 -0.1003156006 -0.00024142515394796204 -0.0005524959883654333
0.08230864257 -0.1003156006 -0.00024778041660330645 -0.0005601773009216143
0.08763010055 -0.1003156006 -0.00025372489519401694 -0.0005677270771860503
0.09295155853 -0.1003156006 -0.00026035249412787625 -0.0005755345572199599
0.09827301651 -0.1003156006 -0.0002666986381314847 -0.0005834673742635161
0.1035944745 -0.1003156006 -0.00027253192158525647 -0.000593238561201895
0.1089159325 -0.1003156006 -0.00028245516478454135 -0.0006059927357896606
0.1142373979 -0.1003156006 -0.0002924442699772258 -0.0006187506127856345
0.1195588559 -0.1003156006 -0.0003020585799047753 -0.0006309269776065949
0.1248803139 -0.1003156006 -0.000311556425293886 -0.0006435532064933498
0.1302017719 -0.1003156006 -0.00032138107116824895 -0.00065595691017089
0.1355232298 -0.1003156006 -0.0003203288102553312 -0.0006696548138182075
0.1408446878 -0.1003156006 -0.0003117595397813058 -0.0006844068844534919
0.1461661458 -0.1003156006 -0.000304742930424067 -0.0006980382967570853
0.1514876038 -0.1003156006 -0.0002974139723027782 -0.000711686715437444
0.1568090618 -0.1003156006 -0.000289969938396946 -0.0007253278374728045
0.1621305197 -0.1003156006 -0.00028287086991623373 -0.0007390562178157386
0.1674519777 -0.1003156006 -0.0002695452912370406 -0.0007251650235022616
0.1727734357 -0.1003156006 -0.0002534610057307363 -0.0007000404881012693
0.1780948937 -0.1003156006 -0.00023792903956283852 -0.0006749242094242816
0.1834163517 -0.1003156006 -0.00022207533820380921 -0.0006497938708304345
0.1887378097 -0.1003156006 -0.00020790054876158824 -0.0006249302879123309
0.1940592676 -0.1003156006 -0.0001961481316802092 -0.0006014863980524072
0.1993807256 -0.1003156006 -0.00022087939529595572 -0.0005629079813949607
0.2047021836 -0.1003156006 -0.00025776804343981665 -0.0005187680694515571
0.2100236416 -0.1003156006 -0.00029468144956247376 -0.0004748993049740517
0.2153450996 -0.1003156006 -0.00033148029812284476 -0.0004360214740490844
0.2206665576 -0.1003156006 -0.00036776613581426647 -0.0003952448388520396
0.2259880155 -0.1003156006 -0.00040424010463987185 -0.0003543906014258394
0.2313094735 -0.1003156006 -0.00048439622785111797 -0.0003506927474905971
0.2366309315 -0.1003156006 -0.0005730088507021644 -0.0003594528843498339
0.2419523895 -0.1003156006 -0.0006592122530080423 -0.00036823017003706195
0.2472738475 -0.1003156006 -0.0007458236784140531 -0.00037687618882975376
0.2525953054 -0.1003156006 -0.0008308179146051498 -0.0003854024985704083
0.2579167783 -0.1003156006 -0.0009126702518086457 -0.00039525544329139514
0.2632382214 -0.1003156006 -0.0009785581184642911 -0.00046374602580947073
0.2685596943 -0.1003156006 -0.0010420932642167672 -0.0005484113370654927
0.2738811374 -0.1003156006 -0.001107563656756622 -0.0006350588502066581
0.2792026103 -0.1003156006 -0.0011710195869473262 -0.0007200366122436084
0.2845240533 -0.1003156006 -0.0012300170866492443 -0.0008004816219380381
0.2898455262 -0.1003156006 -0.0012893298733544876 -0.0008809164112454682
0.2951669693 -0.1003156006 -0.0012794613386762255 -0.0009822120223302495
0.3004884422 -0.1003156006 -0.001258566068543036 -0.001085945353229792
0.3058098853 -0.1003156006 -0.0012392755027052773 -0.0011821978406761225
0.3111313581 -0.1003156006 -0.0012199166994633758 -0.0012784709586198483
0.3164528012 -0.1003156006 -0.0012010856232216208 -0.0013747180119396505
0.3217742741 -0.1003156006 -0.0011806437727231763 -0.001469907362065515
0.3270957172 -0.1003156006 -0.0010997271035646792 -0.0015232357123958994
0.3324171901 -0.1003156006 -0.00101817076195113 -0.0015767181980093962
0.3377386332 -0.1003156006 -0.0009374127023410559 -0.0016301595078719536
0.343060106 -0.1003156006 -0.0008557768604648119 -0.001683608390021705
0.3483815491 -0.1003156006 -0.0007813497991109921 -0.001732301512793682
0.353703022 -0.1003156006 -0.0007019361619800992 -0.0017626226483588288
0.3590244651 -0.1003156006 -0.0006093311129212651 -0.0017506064631146081
0.364345938 -0.1003156006 -0.0005174134105329075 -0.0017385947942928717
0.369667381 -0.1003156006 -0.0004337100381387578 -0.0017269994535395567
0.3749888539 -0.1003156006 -0.0003486259785856862 -0.0017152455009221046
0.380310297 -0.1003156006 -0.0002614175918613971 -0.0017035726382298294
0.3856317699 -0.1003156006 -0.00019910588252140352 -0.0016420266084551493
0.390953213 -0.1003156006 -0.00015078345783052556 -0.0015716865742483844
0.3962746859 -0.1003156006 -0.00010260309450342697 -0.00150169735686155
0.4015961289 -0.1003156006 -5.372213521971399e-05 -0.0014320410061052814
0.4069176018 -0.1003156006 -4.787725779544541e-06 -0.0013628982003483442
0.4122390449 -0.1003156006 1.360594677772646e-05 -0.0012954637924044218
0.4175605178 -0.1003156006 -8.174390630960128e-06 -0.0012189174577614903
0.4228819609 -0.1003156006 -3.098426047376457e-05 -0.001138989595235487
0.4282034338 -0.1003156006 -5.352920164074419e-05 -0.0010597189639768793
0.4335248768 -0.1003156006 -7.340717577475838e-05 -0.0009885916651677074
0.4388463497 -0.1003156006 -0.00010516734973287029 -0.0009267251303882162
0.4441677928 -0.1003156006 -0.0001702967380889395 -0.0008919831978335497
0.4494892657 -0.1003156006 -0.00023396883683164655 -0.0008575878984699183
0.4548107088 -0.1003156006 -0.00029235729038809457 -0.0008252404025888097
0.4601321816 -0.1003156006 -0.00035403672492690297 -0.0007918988678274571
0.4654536247 -0.1003156006 -0.00041703158791045567 -0.0007764894633112063
0.4707750976 -0.1003156006 -0.00047864012135557306 -0.0007884576527275816
0.4760965407 -0.1003156006 -0.0005354414603894893 -0.0007993084437938569
0.4814180136 -0.1003156006 -0.0005923137660643815 -0.0008101837935429023
0.4867394567 -0.1003156006 -0.0006492495224898207 -0.0008209578506377374
0.4920609295 -0.1003156006 -0.0006880337259547426 -0.0008559848053434803
0.4973823726 -0.1003156006 -0.0007189860212362565 -0.0008965142964095874
0.5027038455 -0.1003156006 -0.0007506680296892782 -0.0009368141176080571
0.5080252886 -0.1003156006 -0.0007821075479853172 -0.000977086069390856
0.5133467317 -0.1003156006 -0.0007974731164320793 -0.0010174229419987251
0.5186682343 -0.1003156006 -0.0007948889247394829 -0.0010678138843792228
0.5239896774 -0.1003156006 -0.0007925097670366663 -0.001118285346859027
0.5293111205 -0.1003156006 -0.0007901592778238892 -0.0011672758019279253
0.5346325636 -0.1003156006 -0.0007752974263743862 -0.0012093044353463105
0.5399540663 -0.1003156006 -0.0007419737050921683 -0.001251919289353808
0.5452755094 -0.1003156006 -0.0007078786650062403 -0.0012961582507558956
0.5505969524 -0.1003156006 -0.0006759071387573514 -0.001336735107906634
0.5559183955 -0.1003156006 -0.0006282252703733746 -0.0013637443049828442
0.5612398982 -0.1003156006 -0.0005682446997702179 -0.0013911459864611717
0.5665613413 -0.1003156006 -0.0005093610413435091 -0.0014179501128656529
0.5718827844 -0.1003156006 -0.00044955425700711666 -0.0014323083041160958
0.5772042274 -0.1003156006 -0.0003738412012035428 -0.0014364583260271413
0.5825257301 -0.1003156006 -0.0002970303240986391 -0.0014406586714472592
0.5878471732 -0.1003156006 -0.00022141798776541957 -0.001432913819788597
0.5931686163 -0.1003156006 -0.00013822860789202985 -0.0014110692998617644
0.5984900594 -0.1003156006 -5.439351000029803e-05 -0.001391154305028403
0.6038115621 -0.1003156006 3.2092685000725485e-05 -0.0013501540402329189
0.6091330051 -0.1003156006 0.00011559831914518486 -0.0013049894944891555
0.6144544482 -0.1003156006 0.00020375626022278771 -0.001245600772734422
0.6197758913 -0.1003156006 0.00028546870311931894 -0.0011749287046932983
0.625097394 -0.1003156006 0.000364496470161792 -0.0010961633945912148
0.6304188371 -0.1003156006 0.00044016832923863907 -0.0010013310244134173
0.6357402802 -0.1003156006 0.000506285140201817 -0.0009030452489901965
0.6410617828 -0.1003156006 0.0005686144169280764 -0.0007934304224272875
0.6463832259 -0.1003156006 0.0006237529524458475 -0.0006760181265085463
0.651704669 -0.1003156006 0.0006745350999670257 -0.0005527777136551551
0.6570261121 -0.1003156006 0.000710881707285392 -0.00042344248972074074
0.6623476148 -0.1003156006 0.0007410298719053743 -0.00028831626753898494
0.6676690578 -0.1003156006 0.0007639440126453648 -0.00014849028760821633
0.6729905009 -0.1003156006 0.0007729122256013096 -5.570848655262883e-06
0.678311944 -0.1003156006 0.000774247152652766 0.00013732741729403998
0.6836334467 -0.1003156006 0.000767681790365827 0.00028257755784718273
0.6889548898 -0.1003156006 0.0007511103769416096 0.00042927196789414575
0.6942763329 -0.1003156006 0.0007254907133026357 0.0005746847670623041
0.6995977759 -0.1003156006 0.0006931464554423833 0.0007179012958625344
0.7049192786 -0.1003156006 0.0006542665215363984 0.0008593098688979328
0.7102407217 -0.1003156006 0.0006082546266419892 0.0009968200012714695
0.7155621648 -0.1003156006 0.0005564493279178958 0.0011310309170857737
0.7208836079 -0.1003156006 0.0005005890175860888 0.0012606574613241806
0.7262051105 -0.1003156006 0.0004411708733298856 0.0013859788235048246
0.7315265536 -0.1003156006 0.0003790553330701151 0.0015076566619794225
0.7368479967 -0.1003156006 0.0003145921717060453 0.001621947565101807
0.7421694398 -0.1003156006 0.00024943760076961275 0.0017321388497291749
0.7474909425 -0.1003156006 0.00018716767772241708 0.0018395167237204655
0.7528123856 -0.1003156006 0.00012823988078081237 0.0019417872320710364
0.7581338286 -0.1003156006 7.182976969182646e-05 0.0020384101720991835
-0.3008363545 -0.09699654579 0.001394879548772579 -0.0010362962007440953
-0.2955148816 -0.09699654579 0.001401668044011478 -0.0010072524886693946
-0.2901934385 -0.09699654579 0.0013940925011288678 -0.0009814508115683065
-0.2848719656 -0.09699654579 0.0013954270469329877 -0.0009606900381237699
-0.2795505226 -0.09699654579 0.0014052380329200244 -0.0009422462017167927
-0.2742290497 -0.09699654579 0.001423907837941823 -0.0009226052233166713
-0.2689076066 -0.09699654579 0.0014540113052587402 -0.0009052993770237676
-0.2635861337 -0.09699654579 0.0014722873498521799 -0.0008906055412810827
-0.2582646906 -0.09699654579 0.0014802630667131059 -0.0008883828738271064
-0.2529432178 -0.09699654579 0.00148234726569393 -0.0008917617969804489
-0.2476217598 -0.09699654579 0.001486271037517268 -0.0009009009307195219
-0.2423003018 -0.09699654579 0.0014813541636189977 -0.0009015483166699365
-0.2369788438 -0.09699654579 0.0014776345135844298 -0.0008707372423302515
-0.2316573858 -0.09699654579 0.001482707670503895 -0.000832270776987393
-0.2263359278 -0.09699654579 0.001491903545233089 -0.0007807039991042324
-0.2210144699 -0.09699654579 0.001498605193750189 -0.0007414549409097138
-0.2156930119 -0.09699654579 0.0015120822362027044 -0.0006997341842783302
-0.2103715539 -0.09699654579 0.0015375088734554598 -0.0006480537438483581
-0.2050500959 -0.09699654579 0.0015066743322845412 -0.0006000660077530691
-0.1997286379 -0.09699654579 0.0014496968169066004 -0.0005513275013167305
-0.19440718 -0.09699654579 0.0013891571445293753 -0.0005121613495145485
-0.189085722 -0.09699654579 0.0013569144560615742 -0.00048014896125387355
-0.183764264 -0.09699654579 0.0013392291610927031 -0.00044604523226810487
-0.178442806 -0.09699654579 0.0013067721267641418 -0.0003953198482290567
-0.173121348 -0.09699654579 0.0012631290409750638 -0.0003599651872309046
-0.16779989 -0.09699654579 0.001214596180118543 -0.00033125784805302044
-0.1624784321 -0.09699654579 0.0011638521536843091 -0.000302825197451638
-0.1571569741 -0.09699654579 0.001114521356546944 -0.0002847041055632924
-0.1518355161 -0.09699654579 0.0010749216663364025 -0.00027407370850335565
-0.1465140581 -0.09699654579 0.0010390021184102107 -0.0002659088830163037
-0.1411926001 -0.09699654579 0.001001608834329777 -0.0002595447825846262
-0.1358711421 -0.09699654579 0.0009630742351659895 -0.00025310157211684613
-0.1305496842 -0.09699654579 0.0009228076808845073 -0.0002467991303974111
-0.1252282262 -0.09699654579 0.0008824957326983371 -0.0002420353313958663
-0.1199067682 -0.09699654579 0.000844707275091523 -0.00023308019891326868
-0.1145853102 -0.09699654579 0.0008064567116557634 -0.00022248353512775403
-0.1092638522 -0.09699654579 0.0007690842479015816 -0.00021224716381598033
-0.1039423943 -0.09699654579 0.0007328602489346251 -0.0002040605535256326
-0.09862093627 -0.09699654579 0.0007075013365828991 -0.0001975120308024157
-0.09329947084 -0.09699654579 0.0006826907034671706 -0.00019109061376877359
-0.08797801286 -0.09699654579 0.0006592751366492211 -0.00018491436989217657
-0.08265655488 -0.09699654579 0.00063443943254277 -0.0001792740159381991
-0.0773350969 -0.09699654579 0.0006042247233509209 -0.000179723293642624
-0.07201363891 -0.09699654579 0.0005736932308478688 -0.00018011015620611912
-0.06669218093 -0.09699654579 0.0005434129630213354 -0.00018052934250867064
-0.06137072667 -0.09699654579 0.0005139301486246436 -0.00018041284427807946
-0.05604926869 -0.09699654579 0.0004781811013346562 -0.00018197050134499858
-0.05072781071 -0.09699654579 0.00044190236089417385 -0.00018405346917351581
-0.045406349 -0.09699654579 0.0004054338989083855 -0.00018614526263179096
-0.04008489102 -0.09699654579 0.0003685794704572834 -0.0001880305760551601
-0.03476343304 -0.09699654579 0.00033250986118079316 -0.0001896284640062303
-0.02944197692 -0.09699654579 0.000300309917760222 -0.00018917083120619047
-0.02412051894 -0.09699654579 0.0002676142296792395 -0.00018874049697844818
-0.01879905909 -0.09699654579 0.0002349994617123778 -0.00018823254177568606
-0.01347760204 -0.09699654579 0.00020287051614315013 -0.00018760309062019846
-0.00815614406 -0.09699654579 0.00016630029599966982 -0.000190540438711495
-0.00283468538 -0.09699654579 0.00012529822857324684 -0.00019580071836144337
0.002486772602 -0.09699654579 8.413994893640495e-05 -0.0002009372787290285
0.007808230817 -0.09699654579 4.310118008514304e-05 -0.0002058639864320516
0.0131296888 -0.09699654579 2.0955210004142525e-06 -0.0002110468147406509
0.01845114678 -0.09699654579 -3.842434177300526e-05 -0.00023103383738101466
0.02377260476 -0.09699654579 -7.893292887794615e-05 -0.0002619052254432304
0.02909406275 -0.09699654579 -0.00012053481881134479 -0.00029381394519507106
0.03441552073 -0.09699654579 -0.00016212809995429713 -0.0003258654995836035
0.03973697871 -0.09699654579 -0.0002027519733147331 -0.0003568949554203012
0.04505843669 -0.09699654579 -0.0002270034000592354 -0.0003883503791394438
0.05037989467 -0.09699654579 -0.0002309575926993097 -0.00041896698256972643
0.05570135266 -0.09699654579 -0.00023524010730183309 -0.0004499911537214948
0.06102281436 -0.09699654579 -0.00023867347348509625 -0.0004814859823797787
0.06634426862 -0.09699654579 -0.0002429478872980549 -0.0005118217953132898
0.0716657266 -0.09699654579 -0.00024730280930799353 -0.0005421420593931733
0.07698718458 -0.09699654579 -0.0002525040116401758 -0.0005503430694512653
0.08230864257 -0.09699654579 -0.0002577707946359199 -0.0005568370325112754
0.08763010055 -0.09699654579 -0.0002637893043833451 -0.0005637533690266496
0.09295155853 -0.09699654579 -0.0002693998084536238 -0.0005707214884693568
0.09827301651 -0.09699654579 -0.0002751003157744492 -0.0005774915063069341
0.1035944745 -0.09699654579 -0.00028070842368421836 -0.0005871749103896201
0.1089159325 -0.09699654579 -0.00029161498696773404 -0.0006015799253020151
0.1142373979 -0.09699654579 -0.0003022860031053628 -0.0006158268843005481
0.1195588559 -0.09699654579 -0.00031234251420538033 -0.0006293379523395813
0.1248803139 -0.09699654579 -0.00032257704544190886 -0.0006428545423059004
0.1302017719 -0.09699654579 -0.0003331173541141672 -0.0006572029395848719
0.1355232298 -0.09699654579 -0.0003301358439836666 -0.0006733921221942584
0.1408446878 -0.09699654579 -0.0003209807697262699 -0.0006895103340274827
0.1461661458 -0.09699654579 -0.00031188427252329805 -0.0007054351416549515
0.1514876038 -0.09699654579 -0.000302813168343744 -0.0007214646787010348
0.1568090618 -0.09699654579 -0.00029353833380664463 -0.0007374950143462319
0.1621305197 -0.09699654579 -0.0002847247684498604 -0.000752706113418781
0.1674519777 -0.09699654579 -0.00026777933876238154 -0.0007358929710361366
0.1727734357 -0.09699654579 -0.000248266249242227 -0.0007078663585860625
0.1780948937 -0.09699654579 -0.00022641859374535216 -0.0006788710253828996
0.1834163517 -0.09699654579 -0.00020539367476442695 -0.0006500343248602576
0.1887378097 -0.09699654579 -0.0001884839758108905 -0.0006233773126813879
0.1940592676 -0.09699654579 -0.00017170981046525904 -0.0005967464253481382
0.1993807256 -0.09699654579 -0.00019813937903944437 -0.0005498717346083841
0.2047021836 -0.09699654579 -0.0002365199889250725 -0.0004969501877763712
0.2100236416 -0.09699654579 -0.0002752745277902482 -0.00044985309482338206
0.2153450996 -0.09699654579 -0.0003132085142229217 -0.0004032314815952893
0.2206665576 -0.09699654579 -0.0003514912760512845 -0.00035662057681739125
0.2259880155 -0.09699654579 -0.0003900762203259297 -0.0003098862084812647
0.2313094735 -0.09699654579 -0.0004761184209963144 -0.0003065256321884179
0.2366309315 -0.09699654579 -0.0005737848093128618 -0.00031314723204270867
0.2419523895 -0.09699654579 -0.0006712701125434405 -0.00031979046656853947
0.2472738475 -0.09699654579 -0.0007687624418330803 -0.0003264235194349378
0.2525953054 -0.09699654579 -0.0008615264151826712 -0.0003343317814604104
0.2579167783 -0.09699654579 -0.0009509225275440434 -0.00034250654976918793
0.2632382214 -0.09699654579 -0.001026142241923895 -0.0004205690636879095
0.2685596943 -0.09699654579 -0.0010988709521779622 -0.000513575880804206
0.2738811374 -0.09699654579 -0.001168325255750706 -0.0006037807109144603
0.2792026103 -0.09699654579 -0.0012342643542146417 -0.0006905765725062052
0.2845240533 -0.09699654579 -0.001300785297891808 -0.0007780611710850854
0.2898455262 -0.09699654579 -0.0013694887270232967 -0.000867097713869348
0.2951669693 -0.09699654579 -0.0013559964165268713 -0.000977330849744954
0.3004884422 -0.09699654579 -0.0013344977196307539 -0.0010852957850387807
0.3058098853 -0.09699654579 -0.001312820622510328 -0.0011934984826785966
0.3111313581 -0.09699654579 -0.0012905176559662212 -0.0013016782813168111
0.3164528012 -0.09699654579 -0.0012696186851620882 -0.001406824812614211
0.3217742741 -0.09699654579 -0.0012451388340512914 -0.001504049396268385
0.3270957172 -0.09699654579 -0.0011572411557700553 -0.0015621392802534712
0.3324171901 -0.09699654579 -0.0010690300112766462 -0.0016202762416573401
0.3377386332 -0.09699654579 -0.0009835597544064576 -0.0016763102876515537
0.343060106 -0.09699654579 -0.0009004267524363423 -0.0017306414626069766
0.3483815491 -0.09699654579 -0.0008163717835559131 -0.0017855816996559532
0.353703022 -0.09699654579 -0.0007255868282222007 -0.001817435520354867
0.3590244651 -0.09699654579 -0.0006248413899140083 -0.0018039055597657227
0.364345938 -0.09699654579 -0.0005293524066166404 -0.0017909659107826891
0.369667381 -0.09699654579 -0.00043385361505667843 -0.0017783141809403912
0.3749888539 -0.09699654579 -0.0003372441567751998 -0.0017660564096646089
0.380310297 -0.09699654579 -0.0002459766494662308 -0.0017539053973570542
0.3856317699 -0.09699654579 -0.00018472211230611833 -0.001689785120245084
0.390953213 -0.09699654579 -0.0001297130658511715 -0.0016103341592956487
0.3962746859 -0.09699654579 -7.249390927144407e-05 -0.0015275704498254152
0.4015961289 -0.09699654579 -1.9710342098337095e-05 -0.0014506393334750255
0.4069176018 -0.09699654579 3.104271385897252e-05 -0.0013766349868076144
0.4122390449 -0.09699654579 4.914412793471111e-05 -0.0012961036001322048
0.4175605178 -0.09699654579 2.197672580643252e-05 -0.0012069866576420707
0.4228819609 -0.09699654579 -2.3516182799579515e-06 -0.0011255484739634653
0.4282034338 -0.09699654579 -2.6600476469880884e-05 -0.0010460375226379272
0.4335248768 -0.09699654579 -5.063334190687881e-05 -0.000966226930732081
0.4388463497 -0.09699654579 -9.049906678541215e-05 -0.0008955350871057539
0.4441677928 -0.09699654579 -0.00016137270971787183 -0.000859143124357829
0.4494892657 -0.09699654579 -0.00023098662315722932 -0.0008227464668631389
0.4548107088 -0.09699654579 -0.00030064486300882155 -0.0007862231394668653
0.4601321816 -0.09699654579 -0.0003680760809767844 -0.0007500224117722101
0.4654536247 -0.09699654579 -0.00043133522331643596 -0.0007357140359903454
0.4707750976 -0.09699654579 -0.0004964932418766527 -0.0007489110612219536
0.4760965407 -0.09699654579 -0.0005646413503344175 -0.000763597262067035
0.4814180136 -0.09699654579 -0.0006297912344015115 -0.0007768492126318182
0.4867394567 -0.09699654579 -0.0006911721794755752 -0.0007891380188887472
0.4920609295 -0.09699654579 -0.000731199674562796 -0.0008288233302285117
0.4973823726 -0.09699654579 -0.0007655621272468271 -0.0008753850129474834
0.5027038455 -0.09699654579 -0.0007988742058389616 -0.0009187349002251608
0.5080252886 -0.09699654579 -0.0008318211604289899 -0.000963349270377184
0.5133467317 -0.09699654579 -0.0008474343858599966 -0.0010138258968845936
0.5186682343 -0.09699654579 -0.0008437624194285519 -0.0010697654187415053
0.5239896774 -0.09699654579 -0.0008404751939431929 -0.001120191931331805
0.5293111205 -0.09699654579 -0.0008370347638436848 -0.0011734412262086916
0.5346325636 -0.09699654579 -0.0008179956123419533 -0.0012266383004310595
0.5399540663 -0.09699654579 -0.0007822892689427878 -0.0012729792396064478
0.5452755094 -0.09699654579 -0.0007473935664944166 -0.001317061881014675
0.5505969524 -0.09699654579 -0.0007112417435518803 -0.00136361874730428
0.5559183955 -0.09699654579 -0.0006542848213285568 -0.0013996932082675528
0.5612398982 -0.09699654579 -0.0005945600967220793 -0.0014272180384435585
0.5665613413 -0.09699654579 -0.000534718629624934 -0.001454963601052248
0.5718827844 -0.09699654579 -0.0004623229323692897 -0.0014781987111974987
0.5772042274 -0.09699654579 -0.00038438570307057084 -0.0014841169959982994
0.5825257301 -0.09699654579 -0.0003064321685178826 -0.001490076528053669
0.5878471732 -0.09699654579 -0.00021838201773683417 -0.0014878043699371429
0.5931686163 -0.09699654579 -0.00013044652716852218 -0.0014673378917580114
0.5984900594 -0.09699654579 -3.71744376973224e-05 -0.001446246060785402
0.6038115621 -0.09699654579 5.409660281852095e-05 -0.0014070600031530931
0.6091330051 -0.09699654579 0.00014969607471931474 -0.0013563749798729948
0.6144544482 -0.09699654579 0.00023957831572981813 -0.0013004351570488062
0.6197758913 -0.09699654579 0.0003286151598424761 -0.0012235139760332226
0.625097394 -0.09699654579 0.00041521446563255477 -0.0011434266116285166
0.6304188371 -0.09699654579 0.000494130683784363 -0.0010476539677212106
0.6357402802 -0.09699654579 0.0005728870484918682 -0.0009437496662770697
0.6410617828 -0.09699654579 0.0006388189960753867 -0.0008329178276531087
0.6463832259 -0.09699654579 0.0006999125743111296 -0.0007102394060031859
0.651704669 -0.09699654579 0.0007543218979542258 -0.0005809838496681263
0.6570261121 -0.09699654579 0.0007937613879158705 -0.00044483657427555435
0.6623476148 -0.09699654579 0.000826426698150648 -0.0003048746306543544
0.6676690578 -0.09699654579 0.0008507451055998003 -0.00015957579401978988
0.6729905009 -0.09699654579 0.0008639913398330863 -1.1416493467498386e-05
0.678311944 -0.09699654579 0.0008683432085308908 0.00014019815276797247
0.6836334467 -0.09699654579 0.0008632909150224417 0.00029120546708266915
0.6889548898 -0.09699654579 0.0008476369071214795 0.0004421795611775279
0.6942763329 -0.09699654579 0.0008212586166226823 0.0005923463776173983
0.6995977759 -0.09699654579 0.0007874702726929462 0.0007418458239675693
0.7049192786 -0.09699654579 0.0007465280182750279 0.0008874274322672241
0.7102407217 -0.09699654579 0.0006982833210755057 0.0010293979855264584
0.7155621648 -0.09699654579 0.0006428534340427851 0.0011659725859251083
0.7208836079 -0.09699654579 0.0005821483067014567 0.0012985437106715764
0.7262051105 -0.09699654579 0.00051820856669743 0.0014255328144601068
0.7315265536 -0.09699654579 0.00045163621902280336 0.0015475765308473
0.7368479967 -0.09699654579 0.00038418515627819427 0.0016643828894324266
0.7421694398 -0.09699654579 0.00031675401914507836 0.0017742374795036667
0.7474909425 -0.09699654579 0.0002496538272121181 0.0018793238788344338
0.7528123856 -0.09699654579 0.00018405222586826672 0.0019782931846526325
0.7581338286 -0.09699654579 0.00012665030373330184 0.0020731638115648013
-0.3008363545 -0.09367749095 0.001379700587121526 -0.0010406182297532142
-0.2955148816 -0.09367749095 0.0013882973662633078 -0.0010168485753365621
-0.2901934385 -0.09367749095 0.001386916422533719 -0.0009859709391080186
-0.2848719656 -0.09367749095 0.0013843869222896921 -0.0009668474533946123
-0.2795505226 -0.09367749095 0.0013952739841670881 -0.0009510472933247794
-0.2742290497 -0.09367749095 0.0014210750768239313 -0.0009283527974805216
-0.2689076066 -0.09367749095 0.0014486077604242834 -0.0009095432766356722