VARIABLES = X,Y,phix,phiy
ZONE I=200,J=200,F=POINT 
-0.3008363545 -0.1003156006 -0.0001468981797441848 -5.499102826724633e-05
-0.2955148816 -0.1003156006 -0.00011159296904710074 -9.700349820803608e-05
-0.2901934385 -0.1003156006 -8.860673608931068e-05 -0.00011098727737555509
-0.2848719656 -0.1003156006 -6.669891825176882e-05 -0.00012096730731184269
-0.2795505226 -0.1003156006 -5.2532626307356e-05 -0.00013380075920876449
-0.2742290497 -0.1003156006 -3.888140575022454e-05 -0.00014741134498229776
-0.2689076066 -0.1003156006 -1.4050901370157303e-05 -0.00015489095791173022
-0.2635861337 -0.1003156006 4.336175375592736e-05 -0.00016716533016115397
-0.2582646906 -0.1003156006 0.00010966988911646735 -0.00017776627690062506
-0.2529432178 -0.1003156006 0.00017813557056566722 -0.00018923739485260849
-0.2476217598 -0.1003156006 0.000247283334816911 -0.00019425259321306166
-0.2423003018 -0.1003156006 0.00028842842820017115 -0.00017933881079687026
-0.2369788438 -0.1003156006 0.00031925224283378223 -0.00016121759525234545
-0.2316573858 -0.1003156006 0.0003509524812061175 -0.00014589977885872419
-0.2263359278 -0.1003156006 0.00038468415466581736 -0.00012958058392655014
-0.2210144699 -0.1003156006 0.000376580456891165 -0.00011787495774109524
-0.2156930119 -0.1003156006 0.00036350051866731694 -0.00010552625934293767
-0.2103715539 -0.1003156006 0.00035272212817023433 -9.441689549272237e-05
-0.2050500959 -0.1003156006 0.0003711770112272321 -8.668468072678489e-05
-0.1997286379 -0.1003156006 0.0003835868947047193 -7.009090730798466e-05
-0.19440718 -0.1003156006 0.0003991772451950728 -5.8869983411890103e-05
-0.189085722 -0.1003156006 0.0003877229760146931 -5.836869887198025e-05
-0.183764264 -0.1003156006 0.0003687220480694583 -7.441067252177682e-05
-0.178442806 -0.1003156006 0.0003488796038061369 -8.724680942985315e-05
-0.173121348 -0.1003156006 0.00035718298851675055 -9.706207727186175e-05
-0.16779989 -0.1003156006 0.00037567883018124916 -0.00010512733404829338
-0.1624784321 -0.1003156006 0.0003915970961978023 -0.00011980077328005269
-0.1571569741 -0.1003156006 0.00040971316695782194 -0.0001229189921363402
-0.1518355161 -0.1003156006 0.00042661836292263387 -0.00012201925449225191
-0.1465140581 -0.1003156006 0.0004440113571917466 -0.00012175801328499272
-0.1411926001 -0.1003156006 0.00046174256260333866 -0.00011919999755016978
-0.1358711421 -0.1003156006 0.0004827618858944972 -0.00011307021158560207
-0.1305496842 -0.1003156006 0.0005039776653251557 -0.00010693460997913817
-0.1252282262 -0.1003156006 0.0005245502187780795 -0.00010151160524403516
-0.1199067682 -0.1003156006 0.0005506070766585538 -0.00010269461431713383
-0.1145853102 -0.1003156006 0.0005776537033418563 -0.00010566433512551586
-0.1092638522 -0.1003156006 0.0006051309046097657 -0.00010692026038451367
-0.1039423943 -0.1003156006 0.0006317482530780488 -0.00010750120211144597
-0.09862093627 -0.1003156006 0.0006470033694120178 -0.00010685040065466778
-0.09329947084 -0.1003156006 0.0006617537549751067 -0.00010577926202795155
-0.08797801286 -0.1003156006 0.0006760922838570878 -0.00010471294925071081
-0.08265655488 -0.1003156006 0.0006912993635849896 -0.00010307297355881948
-0.0773350969 -0.1003156006 0.0007072639129487334 -8.911839168255921e-05
-0.07201363891 -0.1003156006 0.0007233473329010604 -7.504404797428555e-05
-0.06669218093 -0.1003156006 0.0007394706737959508 -6.098023381517681e-05
-0.06137072667 -0.1003156006 0.0007548004875894136 -4.706087830513173e-05
-0.05604926869 -0.1003156006 0.0007703906230562266 -3.257998359858235e-05
-0.05072781071 -0.1003156006 0.0007859747359912962 -1.8167182224126075e-05
-0.045406349 -0.1003156006 0.0008013033442519825 -3.6446211857165855e-06
-0.04008489102 -0.1003156006 0.0008170593827986137 1.0718597507687828e-05
-0.03476343304 -0.1003156006 0.0008322194278113013 2.3336042447719362e-05
-0.02944197692 -0.1003156006 0.0008476342595511207 3.09162624460451e-05
-0.02412051894 -0.1003156006 0.0008628391893559863 3.8486884467348086e-05
-0.01879905909 -0.1003156006 0.000877920222825096 4.590451174129695e-05
-0.01347760204 -0.1003156006 0.00089293013362837 5.34776115022283e-05
-0.00815614406 -0.1003156006 0.00091157993377825 6.42061126124399e-05
-0.00283468538 -0.1003156006 0.0009331818612070257 7.712554123332014e-05
0.002486772602 -0.1003156006 0.0009553448203925254 8.943256975287207e-05
0.007808230817 -0.1003156006 0.0009776337349873797 0.00010183190122760498
0.0131296888 -0.1003156006 0.0009992812773134425 0.00011460450927611548
0.01845114678 -0.1003156006 0.001022326906725277 0.0001386351414604785
0.02377260476 -0.1003156006 0.0010461801210390267 0.00017142646441993257
0.02909406275 -0.1003156006 0.0010708835262817754 0.0002051167981878622
0.03441552073 -0.1003156006 0.0010957636365634814 0.00023879872244883857
0.03973697871 -0.1003156006 0.0011199161114447314 0.0002717193928695016
0.04505843669 -0.1003156006 0.0011299134661142097 0.00030611207593065953
0.05037989467 -0.1003156006 0.0011231071468374306 0.00034118030422571847
0.05570135266 -0.1003156006 0.0011153287096783337 0.0003771775301211267
0.06102281436 -0.1003156006 0.0011069757535566251 0.0004130404010885654
0.06634426862 -0.1003156006 0.0010994235182673422 0.00044822845123107557
0.0716657266 -0.1003156006 0.0010927474792958572 0.000483079287258582
0.07698718458 -0.1003156006 0.0010972221250326276 0.0004965013033543424
0.08230864257 -0.1003156006 0.0011023338086394105 0.0005079796855597695
0.08763010055 -0.1003156006 0.0011072883223078006 0.0005185834064962275
0.09295155853 -0.1003156006 0.0011127414526646766 0.0005300649100752274
0.09827301651 -0.1003156006 0.001117773897258205 0.0005421238081485043
0.1035944745 -0.1003156006 0.0011256448490951857 0.0005629686824439324
0.1089159325 -0.1003156006 0.0011432332021606316 0.0006008199245526928
0.1142373979 -0.1003156006 0.0011610851874581825 0.0006386655458638717
0.1195588559 -0.1003156006 0.0011764301602396274 0.0006755387038242593
0.1248803139 -0.1003156006 0.001192801372656414 0.0007129671577940805
0.1302017719 -0.1003156006 0.0012097248904781397 0.0007503079933189387
0.1355232298 -0.1003156006 0.001205849689907993 0.0007965625161075161
0.1408446878 -0.1003156006 0.0011864052560541685 0.0008488599939515426
0.1461661458 -0.1003156006 0.0011691126091704584 0.0008987471601757795
0.1514876038 -0.1003156006 0.0011514744171463166 0.0009486456895059134
0.1568090618 -0.1003156006 0.001133685350431748 0.0009985413645605598
0.1621305197 -0.1003156006 0.0011159248738780475 0.001048447817156441
0.1674519777 -0.1003156006 0.0010843144876174088 0.0010695701298253796
0.1727734357 -0.1003156006 0.0010467057865656464 0.0010794008165585886
0.1780948937 -0.1003156006 0.0010093004061045019 0.0010892120305532195
0.1834163517 -0.1003156006 0.0009719438811930481 0.001099017517240317
0.1887378097 -0.1003156006 0.0009353316162591633 0.0011087807037388389
0.1940592676 -0.1003156006 0.0009003473361446357 0.0011193746382474497
0.1993807256 -0.1003156006 0.0008866165176061397 0.001122778565194895
0.2047021836 -0.1003156006 0.000880167829870377 0.0011234356200786873
0.2100236416 -0.1003156006 0.0008727851648580424 0.001124288339255043
0.2153450996 -0.1003156006 0.0008656488222242996 0.0011264306611061506
0.2206665576 -0.1003156006 0.0008580438735614515 0.0011280582505778542
0.2259880155 -0.1003156006 0.0008501580644836364 0.001129644789004033
0.2313094735 -0.1003156006 0.0008489930545210355 0.0011423706552600144
0.2366309315 -0.1003156006 0.0008480575435756099 0.0011586196882915514
0.2419523895 -0.1003156006 0.0008467001212079547 0.0011745162534005872
0.2472738475 -0.1003156006 0.0008449011856104343 0.0011903910172317556
0.2525953054 -0.1003156006 0.0008416247446910199 0.001206386385514895
0.2579167783 -0.1003156006 0.0008372999691758874 0.0012222626532883815
0.2632382214 -0.1003156006 0.0008203056877989817 0.0012435012258051957
0.2685596943 -0.1003156006 0.0008003806502570351 0.0012668969808780366
0.2738811374 -0.1003156006 0.0007807222314907221 0.0012910819173367945
0.2792026103 -0.1003156006 0.0007606522323149283 0.0013145598251026866
0.2845240533 -0.1003156006 0.0007399061924539743 0.0013364326653100094
0.2898455262 -0.1003156006 0.0007191941313657499 0.0013583036787116233
0.2951669693 -0.1003156006 0.0006805762938925308 0.001367166842542832
0.3004884422 -0.1003156006 0.0006403245066868966 0.0013737507651308072
0.3058098853 -0.1003156006 0.0006010545668798626 0.0013799516300254105
0.3111313581 -0.1003156006 0.0005621988915693606 0.0013862008393660283
0.3164528012 -0.1003156006 0.0005230402760253123 0.0013924505170191943
0.3217742741 -0.1003156006 0.00048415013112731157 0.0013982606756973179
0.3270957172 -0.1003156006 0.00045550063865821823 0.001378700300370087
0.3324171901 -0.1003156006 0.00042558024277705817 0.001359251316283669
0.3377386332 -0.1003156006 0.0003955720346928427 0.001339775926900978
0.343060106 -0.1003156006 0.0003657940646080053 0.001320246498761683
0.3483815491 -0.1003156006 0.00033623532353380803 0.001303489173207077
0.353703022 -0.1003156006 0.0003151354221628102 0.001290776949831517
0.3590244651 -0.1003156006 0.0003144971905362469 0.0012856816604346949
0.364345938 -0.1003156006 0.00031393988270628323 0.0012806071311240441
0.369667381 -0.1003156006 0.00031052408880420163 0.001276693177384967
0.3749888539 -0.1003156006 0.0003080014795392098 0.0012724038992135158
0.380310297 -0.1003156006 0.00030558603527447203 0.001267998883198189
0.3856317699 -0.1003156006 0.0003011163600973604 0.0012816477450976105
0.390953213 -0.1003156006 0.0002946995849568412 0.0013000813238882025
0.3962746859 -0.1003156006 0.0002875008870345641 0.0013176772545815357
0.4015961289 -0.1003156006 0.0002801507179082446 0.0013351399106307203
0.4069176018 -0.1003156006 0.0002740468244325522 0.0013526032482380965
0.4122390449 -0.1003156006 0.0002598076302444773 0.001373983421182847
0.4175605178 -0.1003156006 0.00023681082662401832 0.0014028886156064015
0.4228819609 -0.1003156006 0.00021483232912758362 0.001431794483793108
0.4282034338 -0.1003156006 0.00019267035859201593 0.0014610325680981695
0.4335248768 -0.1003156006 0.0001699525530483677 0.0014879565767824579
0.4388463497 -0.1003156006 0.00014133371662619949 0.0015158046327381658
0.4441677928 -0.1003156006 9.766350853537163e-05 0.0015478240541146042
0.4494892657 -0.1003156006 5.2852070962587e-05 0.001579223812899535
0.4548107088 -0.1003156006 9.0524760679306e-06 0.0016083198330518785
0.4601321816 -0.1003156006 -3.4000881289580564e-05 0.0016388998686707318
0.4654536247 -0.1003156006 -8.512005425462996e-05 0.0016658939690146791
0.4707750976 -0.1003156006 -0.00014813938985585594 0.0016861884379725353
0.4760965407 -0.1003156006 -0.00020833818984516863 0.0017051822457722667
0.4814180136 -0.1003156006 -0.0002689431184021867 0.0017242037583302242
0.4867394567 -0.1003156006 -0.0003297912399341658 0.0017430525216373127
0.4920609295 -0.1003156006 -0.0003994005222471802 0.0017490400245136345
0.4973823726 -0.1003156006 -0.0004697168619568699 0.0017516509701257475
0.5027038455 -0.1003156006 -0.0005387994599516598 0.001754595344203647
0.5080252886 -0.1003156006 -0.0006071225974162089 0.001757474123071219
0.5133467317 -0.1003156006 -0.000672782106936162 0.0017506606385394685
0.5186682343 -0.1003156006 -0.0007425010626378022 0.001732812868877781
0.5239896774 -0.1003156006 -0.0008130460079526341 0.001715154159729452
0.5293111205 -0.1003156006 -0.0008817968061466812 0.0016974940385412654
0.5346325636 -0.1003156006 -0.0009442072736108618 0.0016745524535833956
0.5399540663 -0.1003156006 -0.001005369223267057 0.0016422823824156973
0.5452755094 -0.1003156006 -0.0010677227429004804 0.001609587838096593
0.5505969524 -0.1003156006 -0.0011272923734319711 0.001577946462385251
0.5559183955 -0.1003156006 -0.0011789832371350854 0.0015422196999703972
0.5612398982 -0.1003156006 -0.0012314058103174495 0.0015025264241688898
0.5665613413 -0.1003156006 -0.0012835992544022424 0.0014630282764090418
0.5718827844 -0.1003156006 -0.0013316959733867147 0.0014241762919339656
0.5772042274 -0.1003156006 -0.0013781842630350822 0.0013824749620432425
0.5825257301 -0.1003156006 -0.0014252661128975764 0.0013407032152842771
0.5878471732 -0.1003156006 -0.001470490406231349 0.0012981489669808312
0.5931686163 -0.1003156006 -0.001514492805233543 0.0012536292460977128
0.5984900594 -0.1003156006 -0.0015580855736055876 0.0012091592201626613
0.6038115621 -0.1003156006 -0.0016029462457439322 0.0011621447581343538
0.6091330051 -0.1003156006 -0.0016477800492379303 0.0011146449534869326
0.6144544482 -0.1003156006 -0.0016965748470815492 0.0010645884995978488
0.6197758913 -0.1003156006 -0.0017438774470955336 0.0010128160673096075
0.625097394 -0.1003156006 -0.0017938800647907855 0.0009580403962121522
0.6304188371 -0.1003156006 -0.0018484633315163437 0.0008990746331135021
0.6357402802 -0.1003156006 -0.0019006350360590042 0.0008374170730573332
0.6410617828 -0.1003156006 -0.00195351817041904 0.0007710103214864764
0.6463832259 -0.1003156006 -0.002008919705086669 0.0007006314743184566
0.651704669 -0.1003156006 -0.0020672782173355828 0.0006265707999864593
0.6570261121 -0.1003156006 -0.0021238605052997035 0.0005442562226238259
0.6623476148 -0.1003156006 -0.0021838148375153583 0.00045484798673556595
0.6676690578 -0.1003156006 -0.002244395030088176 0.0003599324369240063
0.6729905009 -0.1003156006 -0.002302638952929542 0.0002518873669197832
0.678311944 -0.1003156006 -0.002357794600840153 0.00013732596536061124
0.6836334467 -0.1003156006 -0.0024120634824290727 1.4059494548724359e-05
0.6889548898 -0.1003156006 -0.0024639124233124376 -0.00012156467214911857
0.6942763329 -0.1003156006 -0.002511620662626565 -0.00026982544954136335
0.6995977759 -0.1003156006 -0.00255439472285117 -0.0004280490692389261
0.7049192786 -0.1003156006 -0.0025913010664235735 -0.0005944381368915143
0.7102407217 -0.1003156006 -0.002619293162546904 -0.0007765342744752932
0.7155621648 -0.1003156006 -0.002636109252230628 -0.0009693804331041177
0.7208836079 -0.1003156006 -0.002641794297050999 -0.0011722768099040688
0.7262051105 -0.1003156006 -0.002637267977568759 -0.0013862433350150625
0.7315265536 -0.1003156006 -0.0026175049808294442 -0.0016105086116203356
0.7368479967 -0.1003156006 -0.0025789844146573925 -0.0018492681880894726
0.7421694398 -0.1003156006 -0.0025243807809512114 -0.00209706662718724
0.7474909425 -0.1003156006 -0.0024550444949847853 -0.002342509937293767
0.7528123856 -0.1003156006 -0.0023610364707128597 -0.002602880064378681
0.7581338286 -0.1003156006 -0.0022471874400594996 -0.0028693550961398735
-0.3008363545 -0.09699654579 -0.00013794172032574037 -5.7994834765734544e-05
-0.2955148816 -0.09699654579 -0.00011062994792021736 -0.0001083925402659459
-0.2901934385 -0.09699654579 -7.403742164073583e-05 -0.00013942052739620225
-0.2848719656 -0.09699654579 -5.482502799342418e-05 -0.00015018386231916694
-0.2795505226 -0.09699654579 -4.8757729437027064e-05 -0.00016778327724212763
-0.2742290497 -0.09699654579 -3.575899855929395e-05 -0.0001806661088786228
-0.2689076066 -0.09699654579 -3.528909396562968e-06 -0.00018447908212100878
-0.2635861337 -0.09699654579 4.616241037619065e-05 -0.0001898027355740361
-0.2582646906 -0.09699654579 0.00011069995605193092 -0.0002017016642987535
-0.2529432178 -0.09699654579 0.0001791828460511252 -0.00021111154854474326
-0.2476217598 -0.09699654579 0.0002483057561725173 -0.0002096871836887777
-0.2423003018 -0.09699654579 0.0003109160744607635 -0.00020159241267768603
-0.2369788438 -0.09699654579 0.00033878507805352233 -0.00018772235326357752
-0.2316573858 -0.09699654579 0.0003741366567256078 -0.0001716978291925862
-0.2263359278 -0.09699654579 0.0004037703841613316 -0.00015006470159569101
-0.2210144699 -0.09699654579 0.0003974577152139556 -0.00013536023909415976
-0.2156930119 -0.09699654579 0.0003870080895943127 -0.00012174126443077011
-0.2103715539 -0.09699654579 0.0003681664139257116 -8.646304574500615e-05
-0.2050500959 -0.09699654579 0.0003721271972309137 -6.535407575938966e-05
-0.1997286379 -0.09699654579 0.00038763603906235514 -5.427660240683364e-05
-0.19440718 -0.09699654579 0.00040455302613119767 -4.571390739714442e-05
-0.189085722 -0.09699654579 0.0003937173056363968 -4.812243822801613e-05
-0.183764264 -0.09699654579 0.0003701354067836512 -5.886121344095333e-05
-0.178442806 -0.09699654579 0.0003473862458039045 -7.273606574660368e-05
-0.173121348 -0.09699654579 0.0003520125988962371 -8.462320159670625e-05
-0.16779989 -0.09699654579 0.00036924287636279357 -0.00010258050404215583
-0.1624784321 -0.09699654579 0.00038781915360640973 -0.0001257830315659107
-0.1571569741 -0.09699654579 0.0004083763314622264 -0.00013736865396287668
-0.1518355161 -0.09699654579 0.0004266934428494269 -0.00013825636157483543
-0.1465140581 -0.09699654579 0.00044098633876039423 -0.00013946460406567682
-0.1411926001 -0.09699654579 0.0004580208043292497 -0.00013772315011988215
-0.1358711421 -0.09699654579 0.00047883199121781197 -0.00013234754345430247
-0.1305496842 -0.09699654579 0.0004997706177331036 -0.00012723409194840199
-0.1252282262 -0.09699654579 0.0005228751644744278 -0.0001210116092204005
-0.1199067682 -0.09699654579 0.000552376813317403 -0.00012068981887291012
-0.1145853102 -0.09699654579 0.0005834788281015615 -0.00012120930521487492
-0.1092638522 -0.09699654579 0.0006138416272997346 -0.00012120981865887966
-0.1039423943 -0.09699654579 0.0006430334501902345 -0.00011897649205526102
-0.09862093627 -0.09699654579 0.0006585570328856828 -0.00011734053141498165
-0.09329947084 -0.09699654579 0.00067310953065983 -0.0001153193692321371
-0.08797801286 -0.09699654579 0.0006871379750819669 -0.00011293392158652431
-0.08265655488 -0.09699654579 0.0007022096601802139 -0.00011033664948569878
-0.0773350969 -0.09699654579 0.0007173542995941935 -9.662721239336676e-05
-0.07201363891 -0.09699654579 0.0007321419686031645 -8.254969271339459e-05
-0.06669218093 -0.09699654579 0.000747004485109733 -6.846205761810966e-05
-0.06137072667 -0.09699654579 0.0007619828608943987 -5.485334500887122e-05
-0.05604926869 -0.09699654579 0.0007781619725668664 -4.0915651187994956e-05
-0.05072781071 -0.09699654579 0.0007941293374441824 -2.6871916320586863e-05
-0.045406349 -0.09699654579 0.0008102915129022975 -1.2830393692044404e-05
-0.04008489102 -0.09699654579 0.0008262005186573593 1.313581085485639e-06
-0.03476343304 -0.09699654579 0.0008412962988530826 1.3781952644023834e-05
-0.02944197692 -0.09699654579 0.0008555595727451587 2.0796792632492555e-05
-0.02412051894 -0.09699654579 0.0008697950575433769 2.787839010647134e-05
-0.01879905909 -0.09699654579 0.0008834667880380682 3.484290646648418e-05
-0.01347760204 -0.09699654579 0.0008976192316534916 4.16461215599662e-05
-0.00815614406 -0.09699654579 0.0009161135177328328 5.143252634753158e-05
-0.00283468538 -0.09699654579 0.0009389821342791065 6.32760546460937e-05
0.002486772602 -0.09699654579 0.000961913516132384 7.485574857851244e-05
0.007808230817 -0.09699654579 0.000984849174915467 8.623374749467705e-05
0.0131296888 -0.09699654579 0.0010079021206174628 9.79463730115511e-05
0.01845114678 -0.09699654579 0.0010321835550614672 0.00012303008650951428
0.02377260476 -0.09699654579 0.001058113053863443 0.00015788091749388723
0.02909406275 -0.09699654579 0.001084623260476364 0.00019362078733758172
0.03441552073 -0.09699654579 0.0011110428042967007 0.0002294540293070001
0.03973697871 -0.09699654579 0.0011368879798358063 0.00026447618900504743
0.04505843669 -0.09699654579 0.0011461334836712852 0.00030114525621757456
0.05037989467 -0.09699654579 0.0011355538985887783 0.0003382248255693039
0.05570135266 -0.09699654579 0.0011251809357955558 0.00037570826457328997
0.06102281436 -0.09699654579 0.0011134983608763497 0.0004135090018255069
0.06634426862 -0.09699654579 0.0011031032613251402 0.00045033191708267526
0.0716657266 -0.09699654579 0.0010934279583048204 0.0004871655891342535
0.07698718458 -0.09699654579 0.0010970921487149685 0.0004971734218599422
0.08230864257 -0.09699654579 0.0011017549677744003 0.0005053848934390605
0.08763010055 -0.09699654579 0.0011068769405311082 0.0005141586243647463
0.09295155853 -0.09699654579 0.0011115969230467602 0.0005232196586294765
0.09827301651 -0.09699654579 0.0011161766185717392 0.0005320187686979034
0.1035944745 -0.09699654579 0.0011252117395522568 0.0005520690215989344
0.1089159325 -0.09699654579 0.0011474249315074033 0.0005920665694478124
0.1142373979 -0.09699654579 0.0011678491875892556 0.0006316324902039226
0.1195588559 -0.09699654579 0.0011870739848399861 0.0006703520350735072
0.1248803139 -0.09699654579 0.0012063250954121665 0.0007090670706203135
0.1302017719 -0.09699654579 0.0012265746548930966 0.0007486694302182723
0.1355232298 -0.09699654579 0.0012211550356598317 0.0007992323138041353
0.1408446878 -0.09699654579 0.0012003617703944492 0.0008544524015728185
0.1461661458 -0.09699654579 0.0011800851504872453 0.0009094607681627878
0.1514876038 -0.09699654579 0.0011595926946846105 0.0009645386889028589
0.1568090618 -0.09699654579 0.0011397691532924249 0.0010196034430131743
0.1621305197 -0.09699654579 0.0011199029154925736 0.0010729682135187603
0.1674519777 -0.09699654579 0.001084502398028351 0.001092281055100825
0.1727734357 -0.09699654579 0.0010433315946031985 0.0010998161267998965
0.1780948937 -0.09699654579 0.001000707185487101 0.0011066526123008167
0.1834163517 -0.09699654579 0.0009589206215804573 0.0011135204768668338
0.1887378097 -0.09699654579 0.0009201118049092848 0.0011224623217494806
0.1940592676 -0.09699654579 0.0008810222018658233 0.0011314057988817269
0.1993807256 -0.09699654579 0.0008684268090381861 0.0011326409254020335
0.2047021836 -0.09699654579 0.0008637884218198005 0.0011313077391698085
0.2100236416 -0.09699654579 0.0008583533358805104 0.0011319514311924738
0.2153450996 -0.09699654579 0.0008520769789628571 0.0011327028265720805
0.2206665576 -0.09699654579 0.0008461565897490043 0.0011334571204106255
0.2259880155 -0.09699654579 0.0008402941052781266 0.0011341150134783185
0.2313094735 -0.09699654579 0.0008407168084927277 0.0011479187838685085
0.2366309315 -0.09699654579 0.0008432692235319643 0.0011637605790952076
0.2419523895 -0.09699654579 0.0008459317977090794 0.0011796016973824384
0.2472738475 -0.09699654579 0.0008484307467982994 0.0011954616145628165
0.2525953054 -0.09699654579 0.0008492378856773123 0.0012117164506443901
0.2579167783 -0.09699654579 0.0008489776600431142 0.0012275889624192334
0.2632382214 -0.09699654579 0.0008342398335014902 0.001252360426897816
0.2685596943 -0.09699654579 0.0008164653604203686 0.0012794627814999276
0.2738811374 -0.09699654579 0.0007988371194251371 0.0013051417387654166
0.2792026103 -0.09699654579 0.0007810280736583522 0.0013294892414495998
0.2845240533 -0.09699654579 0.000762855199507157 0.0013539770806358167
0.2898455262 -0.09699654579 0.0007457667786633751 0.001379321767433825
0.2951669693 -0.09699654579 0.0007072050779880224 0.0013882138063076187
0.3004884422 -0.09699654579 0.0006679695652323053 0.0013952700180592569
0.3058098853 -0.09699654579 0.0006262600315221995 0.0014023355609584203
0.3111313581 -0.09699654579 0.0005839668244455217 0.0014094019801261834
0.3164528012 -0.09699654579 0.0005433525994876999 0.0014160431253051199
0.3217742741 -0.09699654579 0.0005033739794978573 0.0014210996049519842
0.3270957172 -0.09699654579 0.00047637260400052806 0.0013980975998375506
0.3324171901 -0.09699654579 0.0004490557199371468 0.0013751086145792854
0.3377386332 -0.09699654579 0.0004224051102406913 0.0013531217623902181
0.343060106 -0.09699654579 0.0003954544164895025 0.001332477860482363
0.3483815491 -0.09699654579 0.00036823600226888276 0.001311756549584291
0.353703022 -0.09699654579 0.00035302147986047294 0.0012961949525528117
0.3590244651 -0.09699654579 0.000360090227756794 0.001290282728923077
0.364345938 -0.09699654579 0.00036369851132505047 0.001285271287944941
0.369667381 -0.09699654579 0.0003670920158243758 0.0012803193666059175
0.3749888539 -0.09699654579 0.00036829722086518575 0.0012747960513438527
0.380310297 -0.09699654579 0.0003683147045310518 0.0012697805861233385
0.3856317699 -0.09699654579 0.00036404918466205244 0.001284091414657618
0.390953213 -0.09699654579 0.0003602660768160689 0.001303941093524691
0.3962746859 -0.09699654579 0.00035714755006721556 0.0013232347474781017
0.4015961289 -0.09699654579 0.0003535324776126827 0.0013427261221305997
0.4069176018 -0.09699654579 0.0003473978937759814 0.0013608740641932642
0.4122390449 -0.09699654579 0.00033379195002569174 0.0013848465674329352
0.4175605178 -0.09699654579 0.0003120050861229554 0.001416538400549158
0.4228819609 -0.09699654579 0.0002886077465406359 0.0014470937737389464
0.4282034338 -0.09699654579 0.0002648331565628043 0.0014761474696074561
0.4335248768 -0.09699654579 0.00024134315452676504 0.0015059295283987176
0.4388463497 -0.09699654579 0.00021082184400123875 0.001538174865482708
0.4441677928 -0.09699654579 0.00016307344652095605 0.0015719706576685993
0.4494892657 -0.09699654579 0.00011744578909887551 0.0016055322178436875
0.4548107088 -0.09699654579 7.253956854907752e-05 0.0016394642506304949
0.4601321816 -0.09699654579 2.692737427218342e-05 0.0016727158505748078
0.4654536247 -0.09699654579 -2.4390673419916824e-05 0.0016994596090650635
0.4707750976 -0.09699654579 -8.915520452792724e-05 0.0017211591399629847
0.4760965407 -0.09699654579 -0.00015502198393442065 0.0017447732140387364
0.4814180136 -0.09699654579 -0.00021952236504342877 0.0017665620310035033
0.4867394567 -0.09699654579 -0.0002820823709617247 0.0017873206112572796
0.4920609295 -0.09699654579 -0.0003549704819731545 0.0017944190380940793
0.4973823726 -0.09699654579 -0.00043132865700724323 0.0017979555478730268
0.5027038455 -0.09699654579 -0.0005044584631534401 0.0017999248598276523
0.5080252886 -0.09699654579 -0.0005788825395320362 0.001803054937788804
0.5133467317 -0.09699654579 -0.0006547429585699644 0.0017961933431724637
0.5186682343 -0.09699654579 -0.0007309178282732312 0.0017771890686720823
0.5239896774 -0.09699654579 -0.0008029604512729405 0.0017591014653522267
0.5293111205 -0.09699654579 -0.0008770517901992674 0.0017403888933661177
0.5346325636 -0.09699654579 -0.0009490660742874484 0.0017146555510829673
0.5399540663 -0.09699654579 -0.0010134832598194415 0.001680799202210366
0.5452755094 -0.09699654579 -0.001076332167288109 0.0016479029595946942
0.5505969524 -0.09699654579 -0.0011407529002340612 0.0016139669213934762
0.5559183955 -0.09699654579 -0.0011980480624845067 0.0015747647473992761
0.5612398982 -0.09699654579 -0.0012507129913885695 0.0015350653400415311
0.5665613413 -0.09699654579 -0.0013032976930857426 0.001495233625914207
0.5718827844 -0.09699654579 -0.0013556432116920585 0.0014535929876061545
0.5772042274 -0.09699654579 -0.0014018524473834813 0.0014117906770398417
0.5825257301 -0.09699654579 -0.0014482407586035887 0.00136998518459223
0.5878471732 -0.09699654579 -0.0014960405155504633 0.00132681201513308
0.5931686163 -0.09699654579 -0.0015406243628305247 0.001282558333090684
0.5984900594 -0.09699654579 -0.0015871620707109243 0.0012380273483825676
0.6038115621 -0.09699654579 -0.0016345003993242031 0.0011911472372332457
0.6091330051 -0.09699654579 -0.001683733266184814 0.001143296544024791
0.6144544482 -0.09699654579 -0.00173244088699096 0.001093908639768057
0.6197758913 -0.09699654579 -0.001783782233661542 0.0010421644933617412
0.625097394 -0.09699654579 -0.0018350169476394095 0.000989221575213414
0.6304188371 -0.09699654579 -0.001888325774607852 0.0009304567039456966
0.6357402802 -0.09699654579 -0.0019454949829570622 0.0008713751986318781
0.6410617828 -0.09699654579 -0.001999897275393784 0.0008078980915406257
0.6463832259 -0.09699654579 -0.0020610952451765438 0.0007381475007299563
0.651704669 -0.09699654579 -0.002123752380125259 0.0006649745058253438
0.6570261121 -0.09699654579 -0.002186732746193437 0.0005814571787101858
0.6623476148 -0.09699654579 -0.0022496748994571044 0.0004928393600315324
0.6676690578 -0.09699654579 -0.0023133011179863154 0.0003950883084978521
0.6729905009 -0.09699654579 -0.002377174139578794 0.0002889409420826615
0.678311944 -0.09699654579 -0.002441589066547395 0.0001740049072770282
0.6836334467 -0.09699654579 -0.0025038308758916347 5.027793546842907e-05
0.6889548898 -0.09699654579 -0.0025608937170457325 -8.566988803195033e-05
0.6942763329 -0.09699654579 -0.002617178984506531 -0.00023725829736864613
0.6995977759 -0.09699654579 -0.002669384441746011 -0.00040004077454966285
0.7049192786 -0.09699654579 -0.0027126663129316032 -0.000571724832590292
0.7102407217 -0.09699654579 -0.00274658782037272 -0.000757502871277833
0.7155621648 -0.09699654579 -0.0027688952239156477 -0.0009576705245898112
0.7208836079 -0.09699654579 -0.002782798961235085 -0.0011719868522521123
0.7262051105 -0.09699654579 -0.0027823117319884486 -0.0013965492620359795
0.7315265536 -0.09699654579 -0.00276994495650672 -0.001626141604405767
0.7368479967 -0.09699654579 -0.002742155488863594 -0.0018749744229591913
0.7421694398 -0.09699654579 -0.002692717307337173 -0.002130999004237606
0.7474909425 -0.09699654579 -0.002625366526408468 -0.002397176556914011
0.7528123856 -0.09699654579 -0.002535795472793291 -0.002669271438004812
0.7581338286 -0.09699654579 -0.0024238125036768806 -0.0029457755462895877
-0.3008363545 -0.09367749095 -0.00013338465646877787 -6.058000379352557e-05
-0.2955148816 -0.09367749095 -0.00011201885249028633 -0.00010613648592640129
-0.2901934385 -0.09367749095 -6.938366106009499e-05 -0.00015801746061879535
-0.2848719656 -0.09367749095 -5.344953893061356e-05 -0.00018661820304010637
-0.2795505226 -0.09367749095 -4.646325263532439e-05 -0.0002016798742302362
-0.2742290497 -0.09367749095 -3.0490078813462793e-05 -0.00021446196519700285
-0.2689076066 -0.09367749095 -2.2339832527929655e-06 -0.00021931190172938683
-0.2635861337 -0.09367749095 4.5939776187062325e-05 -0.00021714407404609785
-0.2582646906 -0.09367749095 0.00011296260248685468 -0.00022403613481832585
-0.2529432178 -0.09367749095 0.0001778897784620729 -0.00023748341985505575
-0.2476217598 -0.09367749095 0.00024822652947513436 -0.00023972636165123086
-0.2423003018 -0.09367749095 0.00031887901007237435 -0.00022822565653514003