VARIABLES = X,Y,phix,phiy
ZONE I=200,J=200,F=POINT 
-0.3008363545 -0.1003156006 -0.0003554458642257766 -6.840251144783242e-05
-0.2955148816 -0.1003156006 -0.00037772479613692024 -5.228537764813105e-05
-0.2901934385 -0.1003156006 -0.0004082409231398244 -3.044429552181763e-05
-0.2848719656 -0.1003156006 -0.0004393382266938108 -4.138805497270739e-06
-0.2795505226 -0.1003156006 -0.0004770329046357177 2.6474768087769746e-05
-0.2742290497 -0.1003156006 -0.0005240247693627221 6.0942168346214234e-05
-0.2689076066 -0.1003156006 -0.000581281808335317 9.0931275639366e-05
-0.2635861337 -0.1003156006 -0.0006210830906865127 8.606989484895571e-05
-0.2582646906 -0.1003156006 -0.000658108087246545 5.500294788886557e-05
-0.2529432178 -0.1003156006 -0.0007049805878213674 1.9833351410210892e-05
-0.2476217598 -0.1003156006 -0.0007533341099236943 -1.822240454693465e-05
-0.2423003018 -0.1003156006 -0.0007813834915914759 -5.318855385570652e-05
-0.2369788438 -0.1003156006 -0.0008024727923158858 -9.128589372654976e-05
-0.2316573858 -0.1003156006 -0.0008202773746606047 -0.00013230931105286508
-0.2263359278 -0.1003156006 -0.000851399085573478 -0.00016746644651790196
-0.2210144699 -0.1003156006 -0.0008267980894616535 -0.00017074735264633524
-0.2156930119 -0.1003156006 -0.0007938049429408174 -0.00016862823850007758
-0.2103715539 -0.1003156006 -0.0007677533779572237 -0.00016265486207678193
-0.2050500959 -0.1003156006 -0.0007637043832016734 -0.00015571752953142724
-0.1997286379 -0.1003156006 -0.0007502563173329422 -0.0001634717364303834
-0.19440718 -0.1003156006 -0.0007440720225613798 -0.00016172592308428212
-0.189085722 -0.1003156006 -0.0007226053337378932 -0.00015375347276962598
-0.183764264 -0.1003156006 -0.0007009295400502135 -0.00014043420075926071
-0.178442806 -0.1003156006 -0.0006780347129399598 -0.00012821611151044027
-0.173121348 -0.1003156006 -0.0006806039271361858 -0.00012103692019792704
-0.16779989 -0.1003156006 -0.000694373233319272 -0.00011949228809554457
-0.1624784321 -0.1003156006 -0.000700634014235294 -0.00011700045157182525
-0.1571569741 -0.1003156006 -0.0007046536199046931 -0.00011301302033548001
-0.1518355161 -0.1003156006 -0.0007100531375011964 -0.00010824446081387794
-0.1465140581 -0.1003156006 -0.0007159737720918292 -0.00010331808562608923
-0.1411926001 -0.1003156006 -0.0007229201496271136 -9.685100029027166e-05
-0.1358711421 -0.1003156006 -0.000731920820102359 -8.930188913243237e-05
-0.1305496842 -0.1003156006 -0.000740812346085569 -8.177111685181735e-05
-0.1252282262 -0.1003156006 -0.0007504225685179156 -7.445762506607696e-05
-0.1199067682 -0.1003156006 -0.0007599416124420075 -6.87077640837133e-05
-0.1145853102 -0.1003156006 -0.000769976792731454 -6.389173138554954e-05
-0.1092638522 -0.1003156006 -0.0007794798831089806 -6.001307241164447e-05
-0.1039423943 -0.1003156006 -0.0007880812629557055 -5.6102818212966645e-05
-0.09862093627 -0.1003156006 -0.0007857673905095259 -6.379564127152795e-05
-0.09329947084 -0.1003156006 -0.0007809482952118888 -7.278554840476146e-05
-0.08797801286 -0.1003156006 -0.0007763034885931646 -8.17617799136381e-05
-0.08265655488 -0.1003156006 -0.0007728261577121916 -9.031219470501283e-05
-0.0773350969 -0.1003156006 -0.000765066056189553 -9.799959891870033e-05
-0.07201363891 -0.1003156006 -0.000757431970587538 -0.00010561512119094534
-0.06669218093 -0.1003156006 -0.0007498297745377021 -0.00011323572606479325
-0.06137072667 -0.1003156006 -0.0007415373981287926 -0.00012130000467696467
-0.05604926869 -0.1003156006 -0.0007409403463953629 -0.00011947270852020156
-0.05072781071 -0.1003156006 -0.0007421305400845248 -0.00011578944990550854
-0.045406349 -0.1003156006 -0.0007428348302059606 -0.00011249775863864538
-0.04008489102 -0.1003156006 -0.0007444650022521117 -0.0001083172685548406
-0.03476343304 -0.1003156006 -0.0007477133635501111 -0.00010393223929356616
-0.02944197692 -0.1003156006 -0.0007529317056576997 -9.986806063281988e-05
-0.02412051894 -0.1003156006 -0.0007581386872924098 -9.588824364086066e-05
-0.01879905909 -0.1003156006 -0.0007636640848448699 -9.202737108086903e-05
-0.01347760204 -0.1003156006 -0.0007690494032403254 -8.803170401833949e-05
-0.00815614406 -0.1003156006 -0.0007724471842003399 -8.422570836533322e-05
-0.00283468538 -0.1003156006 -0.0007740955677816788 -8.073096851823356e-05
0.002486772602 -0.1003156006 -0.0007749476054852679 -7.721990302432079e-05
0.007808230817 -0.1003156006 -0.000776283261446474 -7.370540650155656e-05
0.0131296888 -0.1003156006 -0.0007776796467951158 -7.022049592384305e-05
0.01845114678 -0.1003156006 -0.0007798200148942298 -6.449035651547755e-05
0.02377260476 -0.1003156006 -0.000782212045714738 -5.7135384773784504e-05
0.02909406275 -0.1003156006 -0.0007844707300415052 -4.948844558402717e-05
0.03441552073 -0.1003156006 -0.0007867612562834787 -4.1838439680742005e-05
0.03973697871 -0.1003156006 -0.0007890267768997406 -3.445503526479296e-05
0.04505843669 -0.1003156006 -0.0007955857133606655 -2.6971010707228862e-05
0.05037989467 -0.1003156006 -0.0008091227459037965 -1.9815292728651244e-05
0.05570135266 -0.1003156006 -0.0008233417885700904 -1.2250970213922272e-05
0.06102281436 -0.1003156006 -0.0008372268584688357 -4.648567690453147e-06
0.06634426862 -0.1003156006 -0.0008508497418895333 2.6525171377724913e-06
0.0716657266 -0.1003156006 -0.0008642883310526692 9.730174873929353e-06
0.07698718458 -0.1003156006 -0.0008791261601851721 9.957027525179404e-06
0.08230864257 -0.1003156006 -0.0008940000565127253 9.603905758770449e-06
0.08763010055 -0.1003156006 -0.0009089163172714308 9.312733520017494e-06
0.09295155853 -0.1003156006 -0.0009236764365838358 8.994128970026042e-06
0.09827301651 -0.1003156006 -0.0009385596023014542 8.622516264844537e-06
0.1035944745 -0.1003156006 -0.0009531752513285981 8.762428914846965e-06
0.1089159325 -0.1003156006 -0.000967056783415927 9.784004629651258e-06
0.1142373979 -0.1003156006 -0.0009812178611741684 1.0796456704005063e-05
0.1195588559 -0.1003156006 -0.0009952471058375034 1.1236904201947076e-05
0.1248803139 -0.1003156006 -0.001009314912882983 1.1867258646878905e-05
0.1302017719 -0.1003156006 -0.0010236456830164634 1.2642145441479563e-05
0.1355232298 -0.1003156006 -0.0010437047827028963 9.858217336472838e-06
0.1408446878 -0.1003156006 -0.0010679768369804036 4.232685966939441e-06
0.1461661458 -0.1003156006 -0.001091439312450385 -1.5896605125483248e-06
0.1514876038 -0.1003156006 -0.001114929691764144 -7.413247858420875e-06
0.1568090618 -0.1003156006 -0.0011380463922435941 -1.3228144152223032e-05
0.1621305197 -0.1003156006 -0.0011614530902118703 -1.8983242187504048e-05
0.1674519777 -0.1003156006 -0.001183617060008694 -4.1826264173746784e-05
0.1727734357 -0.1003156006 -0.0012053312179306495 -7.215196900292917e-05
0.1780948937 -0.1003156006 -0.0012274882716969482 -0.00010248323141504009
0.1834163517 -0.1003156006 -0.0012491872941341618 -0.00013281989916761857
0.1887378097 -0.1003156006 -0.0012699149862361416 -0.00016288352663430214
0.1940592676 -0.1003156006 -0.001288148338909922 -0.0001925088817765354
0.1993807256 -0.1003156006 -0.001285247722046917 -0.0002351993054775527
0.2047021836 -0.1003156006 -0.001275431902601337 -0.00028222187924301263
0.2100236416 -0.1003156006 -0.0012661948325004648 -0.00032919958509887925
0.2153450996 -0.1003156006 -0.0012550878954109713 -0.00037308495488272387
0.2206665576 -0.1003156006 -0.0012440878339355778 -0.0004181385297240458
0.2259880155 -0.1003156006 -0.0012338121937745547 -0.00046317212654502167
0.2313094735 -0.1003156006 -0.0011847466993270014 -0.0004952250240668639
0.2366309315 -0.1003156006 -0.001126920508748828 -0.0005203096074169488
0.2419523895 -0.1003156006 -0.00107001684943744 -0.0005441015062039298
0.2472738475 -0.1003156006 -0.0010131060543882495 -0.0005677754792003232
0.2525953054 -0.1003156006 -0.0009577653152358795 -0.0005907288289895307
0.2579167783 -0.1003156006 -0.0009033072301921333 -0.0006120414992007086
0.2632382214 -0.1003156006 -0.0008303785103276429 -0.0005879333040308785
0.2685596943 -0.1003156006 -0.0007519188858957946 -0.0005523967233550835
0.2738811374 -0.1003156006 -0.0006713099122794273 -0.0005166084984030315
0.2792026103 -0.1003156006 -0.0005924343394498448 -0.0004810416425387129
0.2845240533 -0.1003156006 -0.0005184770078558114 -0.00044592029195594877
0.2898455262 -0.1003156006 -0.0004443485727272014 -0.0004107957107837698
0.2951669693 -0.1003156006 -0.00039622307089580525 -0.00032057933627032613
0.3004884422 -0.1003156006 -0.0003532564464186244 -0.00022232525934597254
0.3058098853 -0.1003156006 -0.0003145834162243809 -0.00013003620146132512
0.3111313581 -0.1003156006 -0.0002758543978884283 -3.7719733245159254e-05
0.3164528012 -0.1003156006 -0.00023755658682522097 5.4603129689714025e-05
0.3217742741 -0.1003156006 -0.0002002580133023342 0.00014766996614821396
0.3270957172 -0.1003156006 -0.0002400997138439499 0.000259123880115361
0.3324171901 -0.1003156006 -0.00027994455874495917 0.0003706831043391172
0.3377386332 -0.1003156006 -0.00032023587098821833 0.0004821978621516994
0.343060106 -0.1003156006 -0.0003602616093532503 0.0005937629203079154
0.3483815491 -0.1003156006 -0.0003983504578595679 0.0006963280493559405
0.353703022 -0.1003156006 -0.0004589373371946731 0.0007865248867702508
0.3590244651 -0.1003156006 -0.0005694954460910818 0.0008502229424703353
0.364345938 -0.1003156006 -0.0006799311213688602 0.0009139182541522445
0.369667381 -0.1003156006 -0.0007826614968233412 0.0009723397975551652
0.3749888539 -0.1003156006 -0.0008872715294725494 0.0010321135168463171
0.380310297 -0.1003156006 -0.0009928062472727933 0.0010923601379114903
0.3856317699 -0.1003156006 -0.001117075034757846 0.0010935175391057882
0.390953213 -0.1003156006 -0.0012374058395740926 0.0010766948193015144
0.3962746859 -0.1003156006 -0.0013559037771386814 0.0010599591247485221
0.4015961289 -0.1003156006 -0.0014750948552281404 0.0010436452832355513
0.4069176018 -0.1003156006 -0.0015958185452735665 0.001027854464921642
0.4122390449 -0.1003156006 -0.001693645268844412 0.0009879394941878852
0.4175605178 -0.1003156006 -0.001773433816241225 0.0009085680989966457
0.4228819609 -0.1003156006 -0.001854831749248952 0.0008270950478198434
0.4282034338 -0.1003156006 -0.0019368366982864683 0.000745596785779297
0.4335248768 -0.1003156006 -0.0020116453855398174 0.0006716488214372725
0.4388463497 -0.1003156006 -0.002068380714307954 0.0005901236478365899
0.4441677928 -0.1003156006 -0.0020797357121490412 0.00048775823567718906
0.4494892657 -0.1003156006 -0.002090691669680559 0.0003866493088403759
0.4548107088 -0.1003156006 -0.002100872921650435 0.00029243912174153447
0.4601321816 -0.1003156006 -0.002111349169521035 0.00019455612944927392
0.4654536247 -0.1003156006 -0.002096711017213223 0.00010228878951939822
0.4707750976 -0.1003156006 -0.00204499095651759 2.1281797720259974e-05
0.4760965407 -0.1003156006 -0.001996679055705861 -5.385036863830339e-05
0.4814180136 -0.1003156006 -0.0019488613307172878 -0.0001289538713729546
0.4867394567 -0.1003156006 -0.0018997300931100436 -0.00020468892806034788
0.4920609295 -0.1003156006 -0.0018228495990139269 -0.00024802101465831337
0.4973823726 -0.1003156006 -0.0017408966821589092 -0.00028012007902418983
0.5027038455 -0.1003156006 -0.001659095433592531 -0.00031261512456265167
0.5080252886 -0.1003156006 -0.0015771470607976762 -0.0003451691691361029
0.5133467317 -0.1003156006 -0.00149973290169759 -0.0003538877464400399
0.5186682343 -0.1003156006 -0.001413192127357111 -0.00033597541474486613
0.5239896774 -0.1003156006 -0.001326554016975514 -0.0003180733212163313
0.5293111205 -0.1003156006 -0.001241911467616934 -0.00030061197197561664
0.5346325636 -0.1003156006 -0.0011710924963342373 -0.00026763045412805985
0.5399540663 -0.1003156006 -0.0011062549548175036 -0.00020988259426727435
0.5452755094 -0.1003156006 -0.0010392002568351034 -0.00015019657609725596
0.5505969524 -0.1003156006 -0.0009761851077108268 -9.462072321988083e-05
0.5559183955 -0.1003156006 -0.0009385813604771924 -2.407812344013071e-05
0.5612398982 -0.1003156006 -0.0009061599082573627 5.9431991174800067e-05
0.5665613413 -0.1003156006 -0.0008736669392923503 0.00014180237534080565
0.5718827844 -0.1003156006 -0.0008567966636994956 0.00021986230661651083
0.5772042274 -0.1003156006 -0.0008600356698497143 0.00030876687798628565
0.5825257301 -0.1003156006 -0.000863718375478225 0.00039806974061039286
0.5878471732 -0.1003156006 -0.000877136804658054 0.00048112859802078447
0.5931686163 -0.1003156006 -0.0009063997805607221 0.0005636524106160549
0.5984900594 -0.1003156006 -0.000934506550025578 0.000647984923497266
0.6038115621 -0.1003156006 -0.0009793468458310466 0.0007232612627219037
0.6091330051 -0.1003156006 -0.0010261103768314699 0.0007945910987171157
0.6144544482 -0.1003156006 -0.0010833770624307606 0.0008596782348361709
0.6197758913 -0.1003156006 -0.001143934782655785 0.0009149041521740402
0.625097394 -0.1003156006 -0.0012069462519391737 0.0009642947205132282
0.6304188371 -0.1003156006 -0.0012748564182779533 0.0010020095487507966
0.6357402802 -0.1003156006 -0.0013397001395033658 0.0010344929022997175
0.6410617828 -0.1003156006 -0.001406094239112772 0.0010599250700419646
0.6463832259 -0.1003156006 -0.001470615388505069 0.0010776505824138282
0.651704669 -0.1003156006 -0.0015330090335763222 0.0010911817190298737
0.6570261121 -0.1003156006 -0.0015891113927624918 0.001099096487078769
0.6623476148 -0.1003156006 -0.0016424616670232069 0.0011043942061901351
0.6676690578 -0.1003156006 -0.001690893478368274 0.001106918275564737
0.6729905009 -0.1003156006 -0.0017322461086652665 0.0011096081466288208
0.678311944 -0.1003156006 -0.0017714373733377937 0.0011141732513750807
0.6836334467 -0.1003156006 -0.0018074259263622025 0.001120158510030385
0.6889548898 -0.1003156006 -0.0018389966281329442 0.0011316058764121043
0.6942763329 -0.1003156006 -0.0018689449814101899 0.0011456235770884906
0.6995977759 -0.1003156006 -0.001898667120992745 0.001164633674140666
0.7049192786 -0.1003156006 -0.0019291756637747066 0.0011899721071917393
0.7102407217 -0.1003156006 -0.0019620199809827345 0.0012216679795181732
0.7155621648 -0.1003156006 -0.0019991536039150686 0.0012612331339881427
0.7208836079 -0.1003156006 -0.002041810511260705 0.001305290169364362
0.7262051105 -0.1003156006 -0.0020907934435144496 0.0013546977034975907
0.7315265536 -0.1003156006 -0.0021500414596894355 0.0014098280031856637
0.7368479967 -0.1003156006 -0.0022241696313255784 0.001469419822416975
0.7421694398 -0.1003156006 -0.002309948838431702 0.001530883454993356
0.7474909425 -0.1003156006 -0.0024044673800385813 0.0015876981279970429
0.7528123856 -0.1003156006 -0.002519773201415427 0.0016442741912668863
0.7581338286 -0.1003156006 -0.002651505264838342 0.001698795498601023
-0.3008363545 -0.09699654579 -0.0003492513671357987 -5.722119826771123e-05
-0.2955148816 -0.09699654579 -0.0003737834272213571 -3.981261810840178e-05
-0.2901934385 -0.09699654579 -0.00039921662494713455 -1.3449976823771255e-05
-0.2848719656 -0.09699654579 -0.00043290752060657256 1.4652632758618693e-05
-0.2795505226 -0.09699654579 -0.00047448694581299155 4.777114852435204e-05
-0.2742290497 -0.09699654579 -0.0005232550103202584 8.134343967866282e-05
-0.2689076066 -0.09699654579 -0.0005869281227059347 0.00010875532797763294
-0.2635861337 -0.09699654579 -0.000634336855809249 0.00011272733482816936
-0.2582646906 -0.09699654579 -0.0006641349771076844 7.934526922062947e-05
-0.2529432178 -0.09699654579 -0.0007062188601798967 4.256296825802085e-05
-0.2476217598 -0.09699654579 -0.0007613179103144997 4.0962143169265425e-07
-0.2423003018 -0.09699654579 -0.0008033940430657924 -4.422571865348976e-05
-0.2369788438 -0.09699654579 -0.0008052566337880805 -8.712689441426462e-05
-0.2316573858 -0.09699654579 -0.0008371390512668656 -0.0001267461243528131
-0.2263359278 -0.09699654579 -0.0008555774902084388 -0.00015417939687798084
-0.2210144699 -0.09699654579 -0.0008269766359820055 -0.0001563704464757516
-0.2156930119 -0.09699654579 -0.0008005003767667587 -0.00015187040781190306
-0.2103715539 -0.09699654579 -0.0007596468603257059 -0.00017091105655932525
-0.2050500959 -0.09699654579 -0.0007371397283357423 -0.00018023100378514225
-0.1997286379 -0.09699654579 -0.0007311972756838287 -0.00017803727702470705
-0.19440718 -0.09699654579 -0.0007253664868727528 -0.00017626504326631622
-0.189085722 -0.09699654579 -0.0007063298756805766 -0.0001675220712304721
-0.183764264 -0.09699654579 -0.0006843067717979399 -0.00015542386012113064
-0.178442806 -0.09699654579 -0.0006644068388746492 -0.00013078907720785472
-0.173121348 -0.09699654579 -0.0006641833975087781 -0.00012136023199612659
-0.16779989 -0.09699654579 -0.0006681257112268861 -0.00011777991034614968
-0.1624784321 -0.09699654579 -0.0006765125135082612 -0.0001102190475936707
-0.1571569741 -0.09699654579 -0.000681576558263253 -0.00010314324791164099
-0.1518355161 -0.09699654579 -0.0006892627810256839 -9.771705426525336e-05
-0.1465140581 -0.09699654579 -0.0006957327783863732 -9.34862324464663e-05
-0.1411926001 -0.09699654579 -0.000702401351533174 -8.869016823518631e-05
-0.1358711421 -0.09699654579 -0.000712099349079651 -8.144974030767523e-05
-0.1305496842 -0.09699654579 -0.0007219645930684947 -7.432093616501937e-05
-0.1252282262 -0.09699654579 -0.0007360049107882038 -6.733577575850586e-05
-0.1199067682 -0.09699654579 -0.0007512625381369717 -6.175498376781899e-05
-0.1145853102 -0.09699654579 -0.0007660798559942419 -5.773131251174613e-05
-0.1092638522 -0.09699654579 -0.0007809551010870565 -5.39928553461757e-05
-0.1039423943 -0.09699654579 -0.000795082296861552 -5.0993016423773573e-05
-0.09862093627 -0.09699654579 -0.000794549756098749 -6.0099832343023506e-05
-0.09329947084 -0.09699654579 -0.0007929293459501065 -6.983890994749651e-05
-0.08797801286 -0.09699654579 -0.0007904525229592332 -8.02257825886391e-05
-0.08265655488 -0.09699654579 -0.0007888549584283979 -8.971827762873326e-05
-0.0773350969 -0.09699654579 -0.0007799176043372941 -9.788261191973208e-05
-0.07201363891 -0.09699654579 -0.0007707799042428637 -0.00010634753450281517
-0.06669218093 -0.09699654579 -0.0007619782210456776 -0.00011484756982063097
-0.06137072667 -0.09699654579 -0.0007570120728174823 -0.0001235711934541465
-0.05604926869 -0.09699654579 -0.0007613747293746538 -0.00012093406676430396
-0.05072781071 -0.09699654579 -0.0007672167679995291 -0.00011618217449722143
-0.045406349 -0.09699654579 -0.0007730612922574177 -0.0001114215294435724
-0.04008489102 -0.09699654579 -0.0007798152562196041 -0.00010620830537304351
-0.03476343304 -0.09699654579 -0.0007872024389194373 -0.00010105030436985497
-0.02944197692 -0.09699654579 -0.0007946508429271358 -9.76089641474371e-05
-0.02412051894 -0.09699654579 -0.0008018952894825997 -9.411203663719691e-05
-0.01879905909 -0.09699654579 -0.0008094639357659948 -9.06642821466766e-05
-0.01347760204 -0.09699654579 -0.0008164791589325873 -8.731938892350422e-05
-0.00815614406 -0.09699654579 -0.0008201344696439733 -8.377110983626966e-05
-0.00283468538 -0.09699654579 -0.0008208521396789765 -8.021920277604701e-05
0.002486772602 -0.09699654579 -0.0008213504601635866 -7.662953028372955e-05
0.007808230817 -0.09699654579 -0.0008216871327430528 -7.306025347202044e-05
0.0131296888 -0.09699654579 -0.0008220516225471446 -6.95011188282663e-05
0.01845114678 -0.09699654579 -0.000823706134098756 -6.313039097741924e-05
0.02377260476 -0.09699654579 -0.0008252823543440912 -5.488104964668062e-05
0.02909406275 -0.09699654579 -0.0008263835247608651 -4.624296499741505e-05
0.03441552073 -0.09699654579 -0.000827635027715446 -3.755785949135633e-05
0.03973697871 -0.09699654579 -0.0008295845939155854 -2.927890471580891e-05
0.04505843669 -0.09699654579 -0.0008354942915266421 -2.0879756426669644e-05
0.05037989467 -0.09699654579 -0.0008483414200377419 -1.2930877809340656e-05
0.05570135266 -0.09699654579 -0.0008608534194038765 -4.885281927473876e-06
0.06102281436 -0.09699654579 -0.0008732990130806202 3.3215896545279514e-06
0.06634426862 -0.09699654579 -0.0008861940764890363 1.1216190358722236e-05
0.0716657266 -0.09699654579 -0.0008989340493268183 1.912609347031218e-05
0.07698718458 -0.09699654579 -0.000911678986793234 1.9009254593664947e-05
0.08230864257 -0.09699654579 -0.0009251240908563641 1.839227212926223e-05
0.08763010055 -0.09699654579 -0.0009384023644768634 1.7954384701453718e-05
0.09295155853 -0.09699654579 -0.0009514192617778821 1.7468909731929656e-05
0.09827301651 -0.09699654579 -0.0009652805782434784 1.69594344749563e-05
0.1035944745 -0.09699654579 -0.000978490564099415 1.7391343331040488e-05
0.1089159325 -0.09699654579 -0.0009913605232200148 1.9466098409714662e-05
0.1142373979 -0.09699654579 -0.0010052949314724004 2.131025503210079e-05
0.1195588559 -0.09699654579 -0.0010190521464558885 2.298389798173673e-05
0.1248803139 -0.09699654579 -0.0010332959742238089 2.4673935161293278e-05
0.1302017719 -0.09699654579 -0.0010465537286180016 2.6487924016249145e-05
0.1355232298 -0.09699654579 -0.0010673980247971218 2.4919358676122938e-05
0.1408446878 -0.09699654579 -0.0010929617362840883 1.969958358213203e-05
0.1461661458 -0.09699654579 -0.0011185310496357034 1.4469991946829724e-05
0.1514876038 -0.09699654579 -0.0011438161964218974 9.073997436207448e-06
0.1568090618 -0.09699654579 -0.001169255453705562 3.6864850798665003e-06
0.1621305197 -0.09699654579 -0.0011940255788617901 -1.8551252830640011e-06
0.1674519777 -0.09699654579 -0.0012169390133213126 -2.6612443632613344e-05
0.1727734357 -0.09699654579 -0.001240431585586935 -5.853196195773393e-05
0.1780948937 -0.09699654579 -0.0012644586881373732 -9.112775124469476e-05
0.1834163517 -0.09699654579 -0.0012882786457971615 -0.00012345982134609484
0.1887378097 -0.09699654579 -0.0013097090647322402 -0.00015445500066093426
0.1940592676 -0.09699654579 -0.0013314025869073799 -0.00018547588081572363
0.1993807256 -0.09699654579 -0.0013277030268402294 -0.00023325959144170075
0.2047021836 -0.09699654579 -0.0013175015379858206 -0.0002857010040512356
0.2100236416 -0.09699654579 -0.0013065858193984227 -0.0003339660172611605
0.2153450996 -0.09699654579 -0.0012959211226987552 -0.00038180496528757965
0.2206665576 -0.09699654579 -0.0012855741677460287 -0.0004296422639669434
0.2259880155 -0.09699654579 -0.0012748647620783229 -0.00047758323814903604
0.2313094735 -0.09699654579 -0.0012223020972404715 -0.0005112473076472201
0.2366309315 -0.09699654579 -0.0011608371056527332 -0.0005412373614567208
0.2419523895 -0.09699654579 -0.0010990048582668343 -0.0005712257592015405
0.2472738475 -0.09699654579 -0.0010369406026753784 -0.000601200993118135
0.2525953054 -0.09699654579 -0.0009770552713131014 -0.0006287991621136921
0.2579167783 -0.09699654579 -0.000918620136658607 -0.0006543781804565027
0.2632382214 -0.09699654579 -0.0008348496514854989 -0.0006297265123327854
0.2685596943 -0.09699654579 -0.0007461453967764214 -0.0005946881255636966
0.2738811374 -0.09699654579 -0.000660125697405164 -0.0005594981189693608
0.2792026103 -0.09699654579 -0.0005788535799416626 -0.0005238569127429307
0.2845240533 -0.09699654579 -0.000496533355200121 -0.0004883950254167067
0.2898455262 -0.09699654579 -0.00041243517031727364 -0.00045298552909699597
0.2951669693 -0.09699654579 -0.0003600374814366024 -0.0003545530247703078
0.3004884422 -0.09699654579 -0.0003144751214035193 -0.0002527780839514868
0.3058098853 -0.09699654579 -0.00026874519673343806 -0.00015117892758892887
0.3111313581 -0.09699654579 -0.0002230473129218565 -4.9634039278612467e-05
0.3164528012 -0.09699654579 -0.00017929827367989127 4.968713891740488e-05
0.3217742741 -0.09699654579 -0.00014262670621221154 0.00014632189637220683
0.3270957172 -0.09699654579 -0.00018410875039336192 0.00026801634001648913
0.3324171901 -0.09699654579 -0.0002251342643259477 0.00038966535773753537
0.3377386332 -0.09699654579 -0.0002656376502457922 0.0005079169793914018
0.343060106 -0.09699654579 -0.00030523090920153066 0.0006228168372783918
0.3483815491 -0.09699654579 -0.00034531662564115366 0.0007382259167935379
0.353703022 -0.09699654579 -0.00041374339216042024 0.0008391157031845498
0.3590244651 -0.09699654579 -0.000533328600056731 0.0009090391522886483
0.364345938 -0.09699654579 -0.0006468419273886854 0.0009747756453368665
0.369667381 -0.09699654579 -0.000760438368874926 0.0010406779855491968
0.3749888539 -0.09699654579 -0.0008750039649674051 0.0011070461100881079
0.380310297 -0.09699654579 -0.0009850443985727202 0.0011707614498118984
0.3856317699 -0.09699654579 -0.0011101930844367666 0.0011691418604159356
0.390953213 -0.09699654579 -0.0012422958852129848 0.0011509368200426958
0.3962746859 -0.09699654579 -0.0013776458535945733 0.0011320854256477045
0.4015961289 -0.09699654579 -0.0015064500667298956 0.0011142331563423803
0.4069176018 -0.09699654579 -0.0016304711699700607 0.0010968426355917947
0.4122390449 -0.09699654579 -0.001738499186453186 0.0010479157454014048
0.4175605178 -0.09699654579 -0.001825436463746521 0.0009577522992354795
0.4228819609 -0.09699654579 -0.0019069029706395334 0.0008733126175456999
0.4282034338 -0.09699654579 -0.0019864380735664234 0.0007912977202454353
0.4335248768 -0.09699654579 -0.0020659684357420584 0.0007086717436178148
0.4388463497 -0.09699654579 -0.0021270008328577103 0.0006126512537581772
0.4441677928 -0.09699654579 -0.002135742980018587 0.000503319534829444
0.4494892657 -0.09699654579 -0.0021462688759058745 0.00039516825721000904
0.4548107088 -0.09699654579 -0.0021573223024418694 0.0002869008688300098
0.4601321816 -0.09699654579 -0.0021689671187377297 0.0001799104249935218
0.4654536247 -0.09699654579 -0.002152736053010104 8.794060146509325e-05
0.4707750976 -0.09699654579 -0.0020976874445953184 2.646299798523917e-06
0.4760965407 -0.09699654579 -0.0020397563545669593 -8.632901262470069e-05
0.4814180136 -0.09699654579 -0.0019846289321022404 -0.0001717522647865431
0.4867394567 -0.09699654579 -0.0019328262922458901 -0.0002521195202200253
0.4920609295 -0.09699654579 -0.0018492915701584438 -0.0002967170996892445
0.4973823726 -0.09699654579 -0.001757562582505844 -0.0003321475973320077
0.5027038455 -0.09699654579 -0.0016696961434647748 -0.0003660253257356073
0.5080252886 -0.09699654579 -0.0015811774698814222 -0.0004002284951916201
0.5133467317 -0.09699654579 -0.0014893437390001544 -0.000409084114471981
0.5186682343 -0.09699654579 -0.0013949246494646152 -0.0003890122028104412
0.5239896774 -0.09699654579 -0.0013091333079830213 -0.00037051100634704644
0.5293111205 -0.09699654579 -0.0012181069657071994 -0.00035118820530813383
0.5346325636 -0.09699654579 -0.0011334651503656992 -0.0003111600007540968
0.5399540663 -0.09699654579 -0.001063817469006394 -0.00024899321314216096
0.5452755094 -0.09699654579 -0.0009973009820671325 -0.00018917835289549798
0.5505969524 -0.09699654579 -0.0009281380950295385 -0.00012689695982849195
0.5559183955 -0.09699654579 -0.0008826463515591506 -4.3164619596502694e-05
0.5612398982 -0.09699654579 -0.0008499021533165504 4.034392271603239e-05
0.5665613413 -0.09699654579 -0.0008167509121599506 0.0001243382165989019
0.5718827844 -0.09699654579 -0.0007956979603244774 0.00021871408870901583
0.5772042274 -0.09699654579 -0.0007984298625935062 0.00031071654548463836
0.5825257301 -0.09699654579 -0.0008011623525426618 0.0004026912209476434
0.5878471732 -0.09699654579 -0.0008158618451257338 0.000498514297952777
0.5931686163 -0.09699654579 -0.0008472223861185024 0.0005854617194325584
0.5984900594 -0.09699654579 -0.0008815650953267995 0.0006752913154778791
0.6038115621 -0.09699654579 -0.0009276257303444906 0.0007539133815040038
0.6091330051 -0.09699654579 -0.0009848610812171633 0.0008283029854309714
0.6144544482 -0.09699654579 -0.0010413962499586588 0.0008963855913055239
0.6197758913 -0.09699654579 -0.0011090332011357666 0.0009515375209840983
0.625097394 -0.09699654579 -0.0011769034453494283 0.0010034671553650163
0.6304188371 -0.09699654579 -0.0012471373850180961 0.001042951226682179
0.6357402802 -0.09699654579 -0.0013209538785960459 0.0010769804059344243
0.6410617828 -0.09699654579 -0.0013897998664704585 0.0011019466049167815
0.6463832259 -0.09699654579 -0.0014581712975510657 0.0011183062489200125
0.651704669 -0.09699654579 -0.00152322031066035 0.001128531714250846
0.6570261121 -0.09699654579 -0.0015816090654792352 0.0011336092054137772
0.6623476148 -0.09699654579 -0.0016359689784286996 0.0011361488636097883
0.6676690578 -0.09699654579 -0.0016860054128207398 0.0011359674076191898
0.6729905009 -0.09699654579 -0.0017281893014255024 0.0011354499948614582
0.678311944 -0.09699654579 -0.0017654088991713016 0.0011356771659011438
0.6836334467 -0.09699654579 -0.0017995013654195945 0.0011390219890150147
0.6889548898 -0.09699654579 -0.0018282979202664269 0.0011477316916904223
0.6942763329 -0.09699654579 -0.0018554903667249594 0.0011605437492962594
0.6995977759 -0.09699654579 -0.0018805273844657963 0.0011799447488419742
0.7049192786 -0.09699654579 -0.00190626249483194 0.0012061068512462289
0.7102407217 -0.09699654579 -0.001934754200249385 0.0012389981568083708
0.7155621648 -0.09699654579 -0.001968670431976897 0.0012821871921861606
0.7208836079 -0.09699654579 -0.0020067523659583744 0.001332818350556506
0.7262051105 -0.09699654579 -0.002053396620244716 0.0013894634507358946
0.7315265536 -0.09699654579 -0.0021100954569550755 0.0014522170629391869
0.7368479967 -0.09699654579 -0.0021795374712247025 0.0015180453964441078
0.7421694398 -0.09699654579 -0.002264578214294627 0.0015859243313012534
0.7474909425 -0.09699654579 -0.0023626653215061966 0.0016557779493433272
0.7528123856 -0.09699654579 -0.0024804288705230645 0.001722116479955466
0.7581338286 -0.09699654579 -0.0026144539351397192 0.0017845532759116422
-0.3008363545 -0.09367749095 -0.00034367104122343025 -4.6340216199130444e-05
-0.2955148816 -0.09367749095 -0.0003684817817716587 -2.3920741916121113e-05
-0.2901934385 -0.09367749095 -0.0003948635264555305 4.491860842961722e-06
-0.2848719656 -0.09367749095 -0.00042839913500992386 3.53485893640292e-05
-0.2795505226 -0.09367749095 -0.0004701877280118883 6.944242093216138e-05
-0.2742290497 -0.09367749095 -0.0005273179844238808 9.970486635378021e-05
-0.2689076066 -0.09367749095 -0.0005877693538048107 0.0001246274397408509