VARIABLES = X,Y,phix,phiy
ZONE I=200,J=200,F=POINT 
-0.3008363545 -0.1003156006 -0.0005368173302090319 0.0004577490854957683
-0.2955148816 -0.1003156006 -0.0005053176537780027 0.0004638215247494832
-0.2901934385 -0.1003156006 -0.0004780282061743956 0.0004619350137155542
-0.2848719656 -0.1003156006 -0.0004486939999354783 0.00046272773491494223
-0.2795505226 -0.1003156006 -0.000420301186809068 0.0004669231777133489
-0.2742290497 -0.1003156006 -0.0003958549017155 0.00047471725650698795
-0.2689076066 -0.1003156006 -0.0003678708622749898 0.0004892455483488291
-0.2635861337 -0.1003156006 -0.0003612291366353603 0.0005049947572084092
-0.2582646906 -0.1003156006 -0.0003853304131794721 0.0005223298523364242
-0.2529432178 -0.1003156006 -0.0004231761227815154 0.0005423676538629213
-0.2476217598 -0.1003156006 -0.0004692147593004241 0.0005785341965902438
-0.2423003018 -0.1003156006 -0.0005058883528045268 0.0006122059066228388
-0.2369788438 -0.1003156006 -0.0005542972127342391 0.0006331463256478372
-0.2316573858 -0.1003156006 -0.0006089370742641131 0.0006552902940183189
-0.2263359278 -0.1003156006 -0.0006649370857417522 0.0006590790498932368
-0.2210144699 -0.1003156006 -0.0006892250909902654 0.000599939790322439
-0.2156930119 -0.1003156006 -0.0007150831313878341 0.0005254264697535154
-0.2103715539 -0.1003156006 -0.0007425223499041099 0.00042772847996840405
-0.2050500959 -0.1003156006 -0.0007292686553205176 0.00037543402229080436
-0.1997286379 -0.1003156006 -0.0007162225852818512 0.0003179335022898717
-0.19440718 -0.1003156006 -0.0006926312182342165 0.00026223458581494665
-0.189085722 -0.1003156006 -0.0006515995402142908 0.00022692284390166007
-0.183764264 -0.1003156006 -0.0006078196703450228 0.00019694927353697112
-0.178442806 -0.1003156006 -0.000564327222170359 0.00016259054625324194
-0.173121348 -0.1003156006 -0.0005265099685808455 0.00014767160724329416
-0.16779989 -0.1003156006 -0.0004897650676481059 0.0001342214663880885
-0.1624784321 -0.1003156006 -0.00045441800689363524 0.00012690624546689942
-0.1571569741 -0.1003156006 -0.0004292458306239354 0.00012552487438210056
-0.1518355161 -0.1003156006 -0.0004113073523201455 0.0001291169557430877
-0.1465140581 -0.1003156006 -0.00039254658358584053 0.0001338799960252694
-0.1411926001 -0.1003156006 -0.0003747254740880215 0.00013757909994416243
-0.1358711421 -0.1003156006 -0.00035494424530298023 0.000132494065220167
-0.1305496842 -0.1003156006 -0.0003354075400118232 0.00012733805211588258
-0.1252282262 -0.1003156006 -0.0003151514178573234 0.00012117335625304502
-0.1199067682 -0.1003156006 -0.00029363473238972425 0.0001153065228707278
-0.1145853102 -0.1003156006 -0.0002722126354222664 0.00010851367429422947
-0.1092638522 -0.1003156006 -0.00025041432700829974 0.00010227803416878473
-0.1039423943 -0.1003156006 -0.00022922475875010415 9.723755699608737e-05
-0.09862093627 -0.1003156006 -0.00021599341132703327 9.873658932724066e-05
-0.09329947084 -0.1003156006 -0.0002034446509322039 0.00010100757827111725
-0.08797801286 -0.1003156006 -0.00019072383231033113 0.00010329796399324559
-0.08265655488 -0.1003156006 -0.00017848626185796885 0.00010618984401090246
-0.0773350969 -0.1003156006 -0.00017029894476714463 0.00011012261169024007
-0.07201363891 -0.1003156006 -0.00016168025728669806 0.00011413859729224454
-0.06669218093 -0.1003156006 -0.00015300743616614845 0.00011813602396676296
-0.06137072667 -0.1003156006 -0.0001449462675753846 0.00012242447066015873
-0.05604926869 -0.1003156006 -0.0001363888135333672 0.00012397818331414228
-0.05072781071 -0.1003156006 -0.00012717809180541804 0.00012430503275392073
-0.045406349 -0.1003156006 -0.00011824293482331064 0.00012480063691869777
-0.04008489102 -0.1003156006 -0.00010885884583954346 0.00012508081564825512
-0.03476343304 -0.1003156006 -9.850390939385886e-05 0.0001242802524160082
-0.02944197692 -0.1003156006 -8.568060897888333e-05 0.00011968138669867011
-0.02412051894 -0.1003156006 -7.264159060323697e-05 0.0001152417549369462
-0.01879905909 -0.1003156006 -5.992919142763052e-05 0.00011096167353042093
-0.01347760204 -0.1003156006 -4.692293198466545e-05 0.0001065277677984378
-0.00815614406 -0.1003156006 -3.923245129638266e-05 0.00010301846869675149
-0.00283468538 -0.1003156006 -3.5231408098083e-05 9.967968581764324e-05
0.002486772602 -0.1003156006 -3.218084156498145e-05 9.654890060653863e-05
0.007808230817 -0.1003156006 -2.9320003911098313e-05 9.343908945221033e-05
0.0131296888 -0.1003156006 -2.5822122156160805e-05 9.013172455467451e-05
0.01845114678 -0.1003156006 -1.9206808546500693e-05 8.012161356026838e-05
0.02377260476 -0.1003156006 -1.025645477765815e-05 6.438375085416211e-05
0.02909406275 -0.1003156006 -2.010361607388003e-06 4.769831259202463e-05
0.03441552073 -0.1003156006 6.3118327378188995e-06 3.1012298916762525e-05
0.03973697871 -0.1003156006 1.4963000453578648e-05 1.515343393593979e-05
0.04505843669 -0.1003156006 2.8867197680891225e-05 1.277654397842825e-06
0.05037989467 -0.1003156006 5.3529842354918906e-05 -1.1118216503238375e-05
0.05570135266 -0.1003156006 7.897127999008179e-05 -2.4134047568413394e-05
0.06102281436 -0.1003156006 0.00010468714413579918 -3.740771875510387e-05
0.06634426862 -0.1003156006 0.0001298097160071477 -5.004609929109299e-05
0.0716657266 -0.1003156006 0.00015412546904483064 -6.229936166325965e-05
0.07698718458 -0.1003156006 0.00019064336014508454 -5.629263588303917e-05
0.08230864257 -0.1003156006 0.00022807865346815702 -4.900758109714055e-05
0.08763010055 -0.1003156006 0.00026636920470280237 -4.14755585967266e-05
0.09295155853 -0.1003156006 0.0003037873586237646 -3.4128589531591224e-05
0.09827301651 -0.1003156006 0.00034079483809857275 -2.6908773167924358e-05
0.1035944745 -0.1003156006 0.0003717289255679055 -1.244819337984782e-05
0.1089159325 -0.1003156006 0.000390253918896343 1.620369515497127e-05
0.1142373979 -0.1003156006 0.00040952743775524684 4.484364602278887e-05
0.1195588559 -0.1003156006 0.00042821501600393707 7.193365079258321e-05
0.1248803139 -0.1003156006 0.0004474789798038731 9.9662807164485e-05
0.1302017719 -0.1003156006 0.0004657022468967087 0.00012762140162814054
0.1355232298 -0.1003156006 0.00046998459613432436 0.00015086245190318223
0.1408446878 -0.1003156006 0.0004639671596334027 0.00017024315563891993
0.1461661458 -0.1003156006 0.000458938764637983 0.0001890592502598411
0.1514876038 -0.1003156006 0.00045424552307174584 0.00020782409078681408
0.1568090618 -0.1003156006 0.0004489871986010247 0.0002266036513448212
0.1621305197 -0.1003156006 0.00044406295397253286 0.00024535518606621105
0.1674519777 -0.1003156006 0.00044264161390000285 0.00025716067629188245
0.1727734357 -0.1003156006 0.000443143951108273 0.00026577652607122734
0.1780948937 -0.1003156006 0.000443634736967492 0.0002743645960137652
0.1834163517 -0.1003156006 0.00044393433639089235 0.00028295557902957417
0.1887378097 -0.1003156006 0.0004437866611710015 0.0002920426776378014
0.1940592676 -0.1003156006 0.00044325289331019436 0.0003019514754016296
0.1993807256 -0.1003156006 0.00043693991110362295 0.0003214612501501927
0.2047021836 -0.1003156006 0.00042884471128035905 0.00034404493558386657
0.2100236416 -0.1003156006 0.00042031086155896704 0.00036659654063608376
0.2153450996 -0.1003156006 0.00041152037783577896 0.00038697922165785773
0.2206665576 -0.1003156006 0.00040282415597468345 0.00040809773281406464
0.2259880155 -0.1003156006 0.0003943716271803009 0.00042924784141426314
0.2313094735 -0.1003156006 0.0003600658677355072 0.0004367539571966662
0.2366309315 -0.1003156006 0.0003216387693059726 0.00043833725741734104
0.2419523895 -0.1003156006 0.00028395426247103644 0.00043913229073908955
0.2472738475 -0.1003156006 0.0002466429033505351 0.0004399040849119371
0.2525953054 -0.1003156006 0.00020940048242741176 0.00044042386786681857
0.2579167783 -0.1003156006 0.0001741319373346561 0.0004403773110020062
0.2632382214 -0.1003156006 0.00014528524677116426 0.0004064269661887936
0.2685596943 -0.1003156006 0.00011733605878716573 0.0003634587612070867
0.2738811374 -0.1003156006 8.882731114377487e-05 0.0003191268808632738
0.2792026103 -0.1003156006 6.092501416327223e-05 0.0002759218615577106
0.2845240533 -0.1003156006 3.511056470261945e-05 0.00023531371570424887
0.2898455262 -0.1003156006 9.114085019834171e-06 0.00019469123847668082
0.2951669693 -0.1003156006 1.9202566772271693e-05 0.0001448627957960886
0.3004884422 -0.1003156006 3.517124448330403e-05 9.398853234135356e-05
0.3058098853 -0.1003156006 5.018035072593773e-05 4.679154058002075e-05
0.3111313581 -0.1003156006 6.534624183661702e-05 -4.400537174612315e-07
0.3164528012 -0.1003156006 8.023310467988778e-05 -4.761062770233838e-05
0.3217742741 -0.1003156006 9.585621112841008e-05 -9.422837619684696e-05
0.3270957172 -0.1003156006 0.00014212934879583914 -0.00012199272682543439
0.3324171901 -0.1003156006 0.00018761638148277981 -0.00014986754677177744
0.3377386332 -0.1003156006 0.00023338926773852636 -0.0001777318183177362
0.343060106 -0.1003156006 0.00027938719163842765 -0.00020556065827445603
0.3483815491 -0.1003156006 0.00032193718694277875 -0.00023073761634455388
0.353703022 -0.1003156006 0.000369648682567377 -0.00024476468889979633
0.3590244651 -0.1003156006 0.00042925782688630265 -0.0002341885404799302
0.364345938 -0.1003156006 0.0004889884581544694 -0.00022365237892831773
0.369667381 -0.1003156006 0.0005427413844358943 -0.00021293481790075967
0.3749888539 -0.1003156006 0.0005977000290975967 -0.00020216316711309427
0.380310297 -0.1003156006 0.0006535451260685422 -0.00019166089104718592
0.3856317699 -0.1003156006 0.0006894399114554191 -0.00014227045060715546
0.390953213 -0.1003156006 0.0007154331352745495 -8.662750512721502e-05
0.3962746859 -0.1003156006 0.0007414005419653721 -3.182321195071045e-05
0.4015961289 -0.1003156006 0.0007672264623967331 2.270466642374103e-05
0.4069176018 -0.1003156006 0.0007935294990693133 7.728522689329658e-05
0.4122390449 -0.1003156006 0.000794730681993398 0.00012709536168384195
0.4175605178 -0.1003156006 0.0007607020122974532 0.0001797514409133376
0.4228819609 -0.1003156006 0.0007264753304030798 0.00023482551303955572
0.4282034338 -0.1003156006 0.0006912213102958013 0.0002894681178113406
0.4335248768 -0.1003156006 0.000660628489101063 0.00033755222589586215
0.4388463497 -0.1003156006 0.0006211198767651879 0.00037428020058541286
0.4441677928 -0.1003156006 0.0005558992979148841 0.00037965845589801986
0.4494892657 -0.1003156006 0.000492751586068815 0.0003846853130375174
0.4548107088 -0.1003156006 0.00043553248998484873 0.00038899476822050407
0.4601321816 -0.1003156006 0.00037438544393885944 0.0003939704995835574
0.4654536247 -0.1003156006 0.0003193792011344796 0.0003810585031685701
0.4707750976 -0.1003156006 0.00027640097991773896 0.00034128657013211567
0.4760965407 -0.1003156006 0.0002363880220080411 0.0003050634686812566
0.4814180136 -0.1003156006 0.00019680577146828174 0.0002688480635398771
0.4867394567 -0.1003156006 0.00015670753107994628 0.0002322356678750001
0.4920609295 -0.1003156006 0.00014605247229339605 0.00018425425771892087
0.4973823726 -0.1003156006 0.00014343347692941628 0.00013511140157987668
0.5027038455 -0.1003156006 0.00014112938526279688 8.594368063452533e-05
0.5080252886 -0.1003156006 0.00013922946782413963 3.675960997646264e-05
0.5133467317 -0.1003156006 0.0001494709952437272 -2.6919500297229144e-06
0.5186682343 -0.1003156006 0.00017564638431297902 -3.860273272729827e-05
0.5239896774 -0.1003156006 0.0002024990672816557 -7.458753656365353e-05
0.5293111205 -0.1003156006 0.0002282145105905142 -0.00010983696746970295
0.5346325636 -0.1003156006 0.0002548223919327559 -0.00013479970007071996
0.5399540663 -0.1003156006 0.000287746237942093 -0.00014981081577868655
0.5452755094 -0.1003156006 0.0003208445797067835 -0.00016466164261700418
0.5505969524 -0.1003156006 0.00035306448239151204 -0.0001799104490406058
0.5559183955 -0.1003156006 0.0003784187048983831 -0.00018430995534822096
0.5612398982 -0.1003156006 0.0004037524168420345 -0.00018326649804096284
0.5665613413 -0.1003156006 0.00042927225299453707 -0.00018254788265637377
0.5718827844 -0.1003156006 0.0004477281688149703 -0.0001813262108339733
0.5772042274 -0.1003156006 0.00045923868304550167 -0.0001728480153257308
0.5825257301 -0.1003156006 0.0004697656590744255 -0.00016429676059241097
0.5878471732 -0.1003156006 0.0004758323611700351 -0.00015857053690906492
0.5931686163 -0.1003156006 0.0004733448331853763 -0.00015352531883126673
0.5984900594 -0.1003156006 0.0004713130044723148 -0.0001472651557548104
0.6038115621 -0.1003156006 0.0004578860529574167 -0.0001464894644429877
0.6091330051 -0.1003156006 0.00044335328776479264 -0.00014846795440808924
0.6144544482 -0.1003156006 0.00042025130265352573 -0.00015558655173194275
0.6197758913 -0.1003156006 0.000395314043142365 -0.0001701197556007108
0.625097394 -0.1003156006 0.00036807695829274215 -0.00019121128034597844
0.6304188371 -0.1003156006 0.0003350529452734761 -0.00022390285996104514
0.6357402802 -0.1003156006 0.0003072903558853066 -0.00026268215358537443
0.6410617828 -0.1003156006 0.00027791536549893743 -0.000312880643684279
0.6463832259 -0.1003156006 0.00024807361478884485 -0.00037109776331822154
0.651704669 -0.1003156006 0.00021754731569026146 -0.00043716406034574184
0.6570261121 -0.1003156006 0.00019612821223359187 -0.0005161779181367212
0.6623476148 -0.1003156006 0.00017724834289498372 -0.0006059754902340094
0.6676690578 -0.1003156006 0.0001634527639590249 -0.0007038570482924645
0.6729905009 -0.1003156006 0.00016049562790931168 -0.0008166223454394554
0.678311944 -0.1003156006 0.00016687607313134223 -0.0009342559596327412
0.6836334467 -0.1003156006 0.00018015789820490525 -0.0010611117547586174
0.6889548898 -0.1003156006 0.00020491996782522864 -0.001199453186762178
0.6942763329 -0.1003156006 0.00024244011866099595 -0.0013461367954148318
0.6995977759 -0.1003156006 0.0002930369493085291 -0.0015004815487044921
0.7049192786 -0.1003156006 0.00035452894788568526 -0.0016577888068580971
0.7102407217 -0.1003156006 0.0004324693400756667 -0.0018262599447078575
0.7155621648 -0.1003156006 0.0005304542492391678 -0.0019984210146271556
0.7208836079 -0.1003156006 0.0006451796357089992 -0.0021742784682352704
0.7262051105 -0.1003156006 0.0007754921928000746 -0.002356001895772475
0.7315265536 -0.1003156006 0.0009290771300850823 -0.002539885129788047
0.7368479967 -0.1003156006 0.0011076150454047877 -0.002729478922096385
0.7421694398 -0.1003156006 0.001308416979604801 -0.002920540153241448
0.7474909425 -0.1003156006 0.0015232317064683752 -0.0031004270418800266
0.7528123856 -0.1003156006 0.0017767337566613557 -0.0032849666324430826
0.7581338286 -0.1003156006 0.002054219442461893 -0.003467917273188318
-0.3008363545 -0.09699654579 -0.0005162746222138271 0.0004393861203306603
-0.2955148816 -0.09699654579 -0.0004901624959521173 0.00044529596211900183
-0.2901934385 -0.09699654579 -0.00044428826269863345 0.0004522034861468658
-0.2848719656 -0.09699654579 -0.000414497274365331 0.00045473778371392403
-0.2795505226 -0.09699654579 -0.00038345534025603623 0.0004586482798251089
-0.2742290497 -0.09699654579 -0.00035568986486109324 0.0004700009173393593
-0.2689076066 -0.09699654579 -0.000328213535089356 0.0004866980793784637
-0.2635861337 -0.09699654579 -0.0003064898659747029 0.0004986307328124566
-0.2582646906 -0.09699654579 -0.0003247503476468384 0.0005123985702709924
-0.2529432178 -0.09699654579 -0.0003652227513972219 0.0005403962034115864
-0.2476217598 -0.09699654579 -0.0004213910202725901 0.0005924846633883656
-0.2423003018 -0.09699654579 -0.0004719711167519737 0.0006451567654254554
-0.2369788438 -0.09699654579 -0.0005169348951265255 0.0006744442881924343
-0.2316573858 -0.09699654579 -0.000580019471496878 0.0006896118027498238
-0.2263359278 -0.09699654579 -0.0006531291306475457 0.0006938585412533047
-0.2210144699 -0.09699654579 -0.0006803841164582313 0.0006343020305962363
-0.2156930119 -0.09699654579 -0.0007075539562358897 0.0005398045721390124
-0.2103715539 -0.09699654579 -0.0007451559081448547 0.0004280215602790113
-0.2050500959 -0.09699654579 -0.0007397032337250563 0.0003547202354867609
-0.1997286379 -0.09699654579 -0.0007157467650950874 0.0002991253505790999
-0.19440718 -0.09699654579 -0.00068966033438933 0.00023785048616334166
-0.189085722 -0.09699654579 -0.000643441482169924 0.00019205270917088828
-0.183764264 -0.09699654579 -0.0006014611359590093 0.00015355561974369093
-0.178442806 -0.09699654579 -0.0005533438544409009 0.00011681240885004622
-0.173121348 -0.09699654579 -0.0005135340148553975 0.00010105482491400615
-0.16779989 -0.09699654579 -0.000477339196591947 9.622184192948248e-05
-0.1624784321 -0.09699654579 -0.00043959248487879016 9.311109633604698e-05
-0.1571569741 -0.09699654579 -0.0004136804495785054 0.00010459919024748131
-0.1518355161 -0.09699654579 -0.00039573038273604496 0.00011246170683054523
-0.1465140581 -0.09699654579 -0.00037914851348490786 0.00012173190874007534
-0.1411926001 -0.09699654579 -0.000361495213358742 0.00012812786864598098
-0.1358711421 -0.09699654579 -0.00034084437291221557 0.00012176927943832417
-0.1305496842 -0.09699654579 -0.00031926075369535404 0.00011477558466201228
-0.1252282262 -0.09699654579 -0.0002965008309926546 0.00010784959308476904
-0.1199067682 -0.09699654579 -0.000274696065856645 0.00010180734935173399
-0.1145853102 -0.09699654579 -0.0002509124036749997 9.584175724535138e-05
-0.1092638522 -0.09699654579 -0.00022878832919793733 9.026929760412765e-05
-0.1039423943 -0.09699654579 -0.0002069019456572206 8.704084284531445e-05
-0.09862093627 -0.09699654579 -0.000194510095658193 8.971074004313394e-05
-0.09329947084 -0.09699654579 -0.00018240486228841813 9.258447922277967e-05
-0.08797801286 -0.09699654579 -0.00017163823919653858 9.569627822296652e-05
-0.08265655488 -0.09699654579 -0.00015978022342882844 9.914229823225667e-05
-0.0773350969 -0.09699654579 -0.00015233109604421483 0.00010344769913126677
-0.07201363891 -0.09699654579 -0.00014432761196471892 0.00010813807658340726
-0.06669218093 -0.09699654579 -0.00013720609756711396 0.0001129669613846629
-0.06137072667 -0.09699654579 -0.00013007020667152409 0.00011783943127278457
-0.05604926869 -0.09699654579 -0.00012135244976089835 0.00011901276912410706
-0.05072781071 -0.09699654579 -0.0001118609162806095 0.00011914966752643111
-0.045406349 -0.09699654579 -0.00010214835415001262 0.00011929528429123847
-0.04008489102 -0.09699654579 -9.251518192042899e-05 0.00011892964750789143
-0.03476343304 -0.09699654579 -8.204271587760207e-05 0.00011769627520103316
-0.02944197692 -0.09699654579 -6.991098944593535e-05 0.00011386643325526933
-0.02412051894 -0.09699654579 -5.7390152258096665e-05 0.00010989755578108256
-0.01879905909 -0.09699654579 -4.5007161901363014e-05 0.00010602809145345938
-0.01347760204 -0.09699654579 -3.312749372144877e-05 0.0001023026953077259
-0.00815614406 -0.09699654579 -2.679453218705531e-05 9.941091956381344e-05
-0.00283468538 -0.09699654579 -2.5078342012883918e-05 9.66317782259766e-05
0.002486772602 -0.09699654579 -2.3947188776011963e-05 9.40443564339695e-05
0.007808230817 -0.09699654579 -2.2667767190066658e-05 9.143536067246154e-05
0.0131296888 -0.09699654579 -2.126497092816015e-05 8.874461022985196e-05
0.01845114678 -0.09699654579 -1.6361564186542355e-05 7.756506162727591e-05
0.02377260476 -0.09699654579 -8.711161303756375e-06 5.969373802259906e-05
0.02909406275 -0.09699654579 -1.600847766306808e-06 4.119487997437652e-05
0.03441552073 -0.09699654579 5.818698179837334e-06 2.253045493138837e-05
0.03973697871 -0.09699654579 1.3507695953447176e-05 4.690042220472096e-06
0.04505843669 -0.09699654579 2.6769777112274257e-05 -1.1360357961281108e-05
0.05037989467 -0.09699654579 5.332994127491757e-05 -2.5794486190746836e-05
0.05570135266 -0.09699654579 7.967815049279645e-05 -4.030647952028528e-05
0.06102281436 -0.09699654579 0.00010712021370914584 -5.5495510811744306e-05
0.06634426862 -0.09699654579 0.00013317479619650557 -6.97500537337052e-05
0.0716657266 -0.09699654579 0.00015923642273468712 -8.40045451742219e-05
0.07698718458 -0.09699654579 0.00019938686081514954 -7.715302627195286e-05
0.08230864257 -0.09699654579 0.00023995017393793562 -6.921114032860991e-05
0.08763010055 -0.09699654579 0.0002804766265873818 -6.129474983189816e-05
0.09295155853 -0.09699654579 0.0003207818252546984 -5.341130629223859e-05
0.09827301651 -0.09699654579 0.0003610529005663038 -4.5548024679032525e-05
0.1035944745 -0.09699654579 0.00039361334057309307 -2.9099472676707515e-05
0.1089159325 -0.09699654579 0.0004140104627472666 2.6761035921902724e-06
0.1142373979 -0.09699654579 0.0004342074962271074 3.349009752486134e-05
0.1195588559 -0.09699654579 0.0004540904343513822 6.33782335085719e-05
0.1248803139 -0.09699654579 0.00047392365000196735 9.32295028560737e-05
0.1302017719 -0.09699654579 0.0004940795252113827 0.00012397011654286286
0.1355232298 -0.09699654579 0.0004969488248839074 0.0001488293913811433
0.1408446878 -0.09699654579 0.0004900520029542292 0.00016888876761071
0.1461661458 -0.09699654579 0.00048329915547503163 0.00018886461230834488
0.1514876038 -0.09699654579 0.00047625768424783976 0.0002087112370751834
0.1568090618 -0.09699654579 0.0004688773223611311 0.00022856117852110343
0.1621305197 -0.09699654579 0.000462222406646402 0.00024819193838419244
0.1674519777 -0.09699654579 0.000461065899505527 0.00025931799597403855
0.1727734357 -0.09699654579 0.0004616833916922473 0.00026738688487617303
0.1780948937 -0.09699654579 0.0004630549927130078 0.0002754391494729051
0.1834163517 -0.09699654579 0.0004642292282192827 0.000283462624115509
0.1887378097 -0.09699654579 0.00046440512181081755 0.0002918211679609386
0.1940592676 -0.09699654579 0.00046518564240116347 0.0003001736976780626
0.1993807256 -0.09699654579 0.0004597473184149652 0.0003222241708211098
0.2047021836 -0.09699654579 0.00045296313648305383 0.00034793044362529046
0.2100236416 -0.09699654579 0.0004451762349520835 0.0003714666957233523
0.2153450996 -0.09699654579 0.0004364476178352587 0.0003948402438442832
0.2206665576 -0.09699654579 0.00042811509552734934 0.0004182412203125392
0.2259880155 -0.09699654579 0.00042004798160355343 0.00044161527603765673
0.2313094735 -0.09699654579 0.00038339471863996016 0.00045013658058398384
0.2366309315 -0.09699654579 0.00034029796464301053 0.00045423480594748055
0.2419523895 -0.09699654579 0.0002969734124072193 0.00045832411840532073
0.2472738475 -0.09699654579 0.0002532305731500718 0.0004623928118868469
0.2525953054 -0.09699654579 0.00021269774334037997 0.0004653243137925254
0.2579167783 -0.09699654579 0.00017324477122709743 0.0004670376386571118
0.2632382214 -0.09699654579 0.00014007514806245572 0.0004278588091736232
0.2685596943 -0.09699654579 0.00010833613746931181 0.0003799721853298783
0.2738811374 -0.09699654579 7.784923476450713e-05 0.0003338081044530372
0.2792026103 -0.09699654579 4.933307905699539e-05 0.0002894526959564268
0.2845240533 -0.09699654579 2.004035370180627e-05 0.0002448046519705111
0.2898455262 -0.09699654579 -9.664038291724693e-06 0.00019920110867244044
0.2951669693 -0.09699654579 2.5283667158828936e-06 0.00014486856378967774
0.3004884422 -0.09699654579 1.9949675121052692e-05 9.185297285520392e-05
0.3058098853 -0.09699654579 3.63964910320597e-05 3.8772388571665364e-05
0.3111313581 -0.09699654579 5.318634834828107e-05 -1.4337593824723369e-05
0.3164528012 -0.09699654579 6.936801685262859e-05 -6.586093764790958e-05
0.3217742741 -0.09699654579 8.65327061256445e-05 -0.00011368430362346423
0.3270957172 -0.09699654579 0.00013706621030133988 -0.00014481158047038897
0.3324171901 -0.09699654579 0.00018670686238066433 -0.00017592979145348276
0.3377386332 -0.09699654579 0.00023548763560996211 -0.00020578650589571587
0.343060106 -0.09699654579 0.0002832853232963172 -0.00023449459639645305
0.3483815491 -0.09699654579 0.0003307425184021536 -0.0002633990217282457
0.353703022 -0.09699654579 0.00038638542631280683 -0.00027853735730489046
0.3590244651 -0.09699654579 0.0004536385784511908 -0.00026709446646851583
0.364345938 -0.09699654579 0.0005163094524887257 -0.00025572783131642696
0.369667381 -0.09699654579 0.0005790511495337846 -0.00024450614859034285
0.3749888539 -0.09699654579 0.0006415735902591159 -0.000233896078077909
0.380310297 -0.09699654579 0.0007014964351084018 -0.00022311034399821706
0.3856317699 -0.09699654579 0.0007368154332571823 -0.00017182730879017403
0.390953213 -0.09699654579 0.0007678782845824592 -0.00010830430015624617
0.3962746859 -0.09699654579 0.0007999536637711763 -4.2737569973886015e-05
0.4015961289 -0.09699654579 0.0008294896347181659 1.8653850710068232e-05
0.4069176018 -0.09699654579 0.0008572569069772735 7.675459023458905e-05
0.4122390449 -0.09699654579 0.0008559526880461118 0.0001367597725638521
0.4175605178 -0.09699654579 0.000815806567730736 0.00019938833815090812
0.4228819609 -0.09699654579 0.0007786237217797546 0.00025588148918056196
0.4282034338 -0.09699654579 0.0007426511694566117 0.0003103625511613001
0.4335248768 -0.09699654579 0.0007066553654295386 0.0003653321796463123
0.4388463497 -0.09699654579 0.0006563929318204367 0.00040791532350333676
0.4441677928 -0.09699654579 0.0005853556811716177 0.0004128734268486437
0.4494892657 -0.09699654579 0.000514796762687017 0.00041850865441422073
0.4548107088 -0.09699654579 0.0004450183827047548 0.00042447491504331015
0.4601321816 -0.09699654579 0.00037659184232408896 0.0004299857293118263
0.4654536247 -0.09699654579 0.0003217113531821029 0.000415901172751367
0.4707750976 -0.09699654579 0.0002755609092966674 0.00037348645703854305
0.4760965407 -0.09699654579 0.00022652820660968955 0.00032865967268254115
0.4814180136 -0.09699654579 0.00017997641669281045 0.0002861312436958464
0.4867394567 -0.09699654579 0.0001373648370771198 0.00024665970370656615
0.4920609295 -0.09699654579 0.00012605721724019955 0.0001942244518832
0.4973823726 -0.09699654579 0.00012364482484968328 0.00013835421464270645
0.5027038455 -0.09699654579 0.00012188395171852045 8.564276388366392e-05
0.5080252886 -0.09699654579 0.00011939644747449804 3.188728353120543e-05
0.5133467317 -0.09699654579 0.0001319374670829963 -1.5009751789871431e-05
0.5186682343 -0.09699654579 0.00016089024169258436 -5.3611005812897586e-05
0.5239896774 -0.09699654579 0.00018702368899473643 -8.935730181644008e-05
0.5293111205 -0.09699654579 0.00021450072029064913 -0.0001266445710492183
0.5346325636 -0.09699654579 0.0002472747777984191 -0.0001543691457838555
0.5399540663 -0.09699654579 0.00028226529421719626 -0.0001690779746277883
0.5452755094 -0.09699654579 0.0003152203216013566 -0.00018381493855099712
0.5505969524 -0.09699654579 0.00035052545842863286 -0.00019853794052088574
0.5559183955 -0.09699654579 0.00038030174769271974 -0.00019967677351528912
0.5612398982 -0.09699654579 0.00040571931036717453 -0.00019853093615584684
0.5665613413 -0.09699654579 0.00043113889269160344 -0.00019730870610236754
0.5718827844 -0.09699654579 0.000452589373134392 -0.0001898965803040121
0.5772042274 -0.09699654579 0.00046471904603360655 -0.0001799766187520677
0.5825257301 -0.09699654579 0.0004764146921316276 -0.00017017503080214036
0.5878471732 -0.09699654579 0.0004810960941178495 -0.00015791515019834135
0.5931686163 -0.09699654579 0.0004772527701653114 -0.0001495510678417657
0.5984900594 -0.09699654579 0.0004711594962819073 -0.0001391593215172152
0.6038115621 -0.09699654579 0.0004558742003406156 -0.0001362048332317304
0.6091330051 -0.09699654579 0.0004338215252678445 -0.0001352529240521347
0.6144544482 -0.09699654579 0.00041079055554345154 -0.0001399361039157074
0.6197758913 -0.09699654579 0.00037907272776318613 -0.00015511356158416891
0.625097394 -0.09699654579 0.00034743791360654884 -0.0001730519890431001
0.6304188371 -0.09699654579 0.0003131248353613221 -0.0002053666916428139
0.6357402802 -0.09699654579 0.00027353255726359095 -0.00024203410265585248
0.6410617828 -0.09699654579 0.00023967788265696083 -0.00028913081636115816
0.6463832259 -0.09699654579 0.00020170574160733668 -0.0003496530065281055
0.651704669 -0.09699654579 0.00016613494365923107 -0.00041850700874109155
0.6570261121 -0.09699654579 0.00013799278600839837 -0.0005027847087397715
0.6623476148 -0.09699654579 0.00011438349561329019 -0.0005942660872425333
0.6676690578 -0.09699654579 9.685529640025962e-05 -0.0006990909118291265
0.6729905009 -0.09699654579 8.625133861679378e-05 -0.0008138011415370039
0.678311944 -0.09699654579 8.255162878509549e-05 -0.0009392144019369905
0.6836334467 -0.09699654579 8.798466225054197e-05 -0.0010720630144012543
0.6889548898 -0.09699654579 0.00010891204570923633 -0.0012144849012757023
0.6942763329 -0.09699654579 0.0001397921687942531 -0.0013697592707408994
0.6995977759 -0.09699654579 0.00018331614044719559 -0.001533800092041664
0.7049192786 -0.09699654579 0.00024210951593358804 -0.0017012711993966945
0.7102407217 -0.09699654579 0.00031824325532203815 -0.0018772456107607146
0.7155621648 -0.09699654579 0.00041490655678151525 -0.002060238409526736
0.7208836079 -0.09699654579 0.0005269505646241857 -0.0022527882079213307
0.7262051105 -0.09699654579 0.0006592732076957097 -0.0024481124206392722
0.7315265536 -0.09699654579 0.0008058068256319625 -0.002641668481224122
0.7368479967 -0.09699654579 0.0009804457918806263 -0.0028458473275980375
0.7421694398 -0.09699654579 0.0011806953808888142 -0.003047837938052061
0.7474909425 -0.09699654579 0.0014023769450299051 -0.003252891114703874
0.7528123856 -0.09699654579 0.0016531077151220144 -0.0034535419575312245
0.7581338286 -0.09699654579 0.0019350730289387319 -0.0036483927541988924
-0.3008363545 -0.09367749095 -0.0004971302075851403 0.0004182113531887953
-0.2955148816 -0.09367749095 -0.00046765614608843366 0.00042610919365813286
-0.2901934385 -0.09367749095 -0.0004200490323039704 0.0004395150505077752
-0.2848719656 -0.09367749095 -0.0003750922848176102 0.0004444810139158498
-0.2795505226 -0.09367749095 -0.00034460858227637126 0.0004515825513117449
-0.2742290497 -0.09367749095 -0.000315949692447438 0.0004651076201165509
-0.2689076066 -0.09367749095 -0.00028784861160772936 0.00048154347761753577
-0.2635861337 -0.09367749095 -0.00025661924489258844 0.0004891358948068339