VARIABLES = X,Y,phix,phiy
ZONE I=200,J=200,F=POINT 
-0.3008363545 -0.1003156006 -0.00010889744797716845 0.0007187383079310101
-0.2955148816 -0.1003156006 -9.311907656189773e-05 0.000723719809972928
-0.2901934385 -0.1003156006 -9.579168530866595e-05 0.0007233870663982637
-0.2848719656 -0.1003156006 -0.00010029187900535793 0.0007248004918883438
-0.2795505226 -0.1003156006 -9.976799952958193e-05 0.0007242072669349621
-0.2742290497 -0.1003156006 -9.963025313871249e-05 0.0007164503266357422
-0.2689076066 -0.1003156006 -0.00010236406343427472 0.0007113895814455189
-0.2635861337 -0.1003156006 -0.00011543330682284669 0.0007133382113393704
-0.2582646906 -0.1003156006 -0.0001369950143221615 0.0007269374386075357
-0.2529432178 -0.1003156006 -0.00016204840390916998 0.0007441741587752733
-0.2476217598 -0.1003156006 -0.00018754499970327775 0.0007645688029334946
-0.2423003018 -0.1003156006 -0.0002117225343095719 0.0007620285250075436
-0.2369788438 -0.1003156006 -0.00023985226926770948 0.000741471777496488
-0.2316573858 -0.1003156006 -0.00027531158518285116 0.0007191890159859588
-0.2263359278 -0.1003156006 -0.0003056972544620301 0.0006923089603048642
-0.2210144699 -0.1003156006 -0.00033684088626838863 0.0006325189450288294
-0.2156930119 -0.1003156006 -0.0003714725359484846 0.0005609810249746398
-0.2103715539 -0.1003156006 -0.00040691563499710816 0.0004716320242832448
-0.2050500959 -0.1003156006 -0.0003696180939621928 0.0004308603637746384
-0.1997286379 -0.1003156006 -0.000332093318700836 0.00039273765749689383
-0.19440718 -0.1003156006 -0.00028632235894975364 0.0003592144656587649
-0.189085722 -0.1003156006 -0.00024848014056732854 0.000335133782762776
-0.183764264 -0.1003156006 -0.0002032939564897539 0.00030662629566260985
-0.178442806 -0.1003156006 -0.00015671713282271437 0.00026911276094741967
-0.173121348 -0.1003156006 -0.00011601172537069618 0.0002435155186725494
-0.16779989 -0.1003156006 -8.074426302304793e-05 0.00021677238297680102
-0.1624784321 -0.1003156006 -4.3708488832687005e-05 0.00020226523367267933
-0.1571569741 -0.1003156006 -1.2566316238662093e-05 0.00019375652164258623
-0.1518355161 -0.1003156006 1.4264195415708184e-05 0.00019274093468860874
-0.1465140581 -0.1003156006 4.13694612898999e-05 0.00019348342100235526
-0.1411926001 -0.1003156006 6.899964043370392e-05 0.00019329246832705657
-0.1358711421 -0.1003156006 9.661494497801918e-05 0.00018468409321662226
-0.1305496842 -0.1003156006 0.00012385257261933282 0.00017607586067825486
-0.1252282262 -0.1003156006 0.00015191170396808808 0.00016643137744532413
-0.1199067682 -0.1003156006 0.0001776847193451295 0.00016253538957837336
-0.1145853102 -0.1003156006 0.00020226217843121006 0.00015939875744942783
-0.1092638522 -0.1003156006 0.00022745213912678404 0.00015657875603376328
-0.1039423943 -0.1003156006 0.00025254749508181977 0.00015444716347023634
-0.09862093627 -0.1003156006 0.00027218773804298964 0.00015668197308622375
-0.09329947084 -0.1003156006 0.0002924624641122929 0.00015927118500364822
-0.08797801286 -0.1003156006 0.0003130247786349482 0.00016186538208446828
-0.08265655488 -0.1003156006 0.0003331561658329384 0.00016513142558904022
-0.0773350969 -0.1003156006 0.00035354126118698596 0.00016551022586559576
-0.07201363891 -0.1003156006 0.00037389689373858333 0.00016580658311496303
-0.06669218093 -0.1003156006 0.00039452192450863875 0.00016610717538384728
-0.06137072667 -0.1003156006 0.00041534146707313674 0.00016662581315173702
-0.05604926869 -0.1003156006 0.00043545490211423926 0.00016680415127367474
-0.05072781071 -0.1003156006 0.000455100233635649 0.00016628511182212405
-0.045406349 -0.1003156006 0.00047464816051078407 0.00016581038363257028
-0.04008489102 -0.1003156006 0.0004948510239117021 0.00016528615495850577
-0.03476343304 -0.1003156006 0.0005141811274609704 0.00016504566535593983
-0.02944197692 -0.1003156006 0.0005315998626917441 0.0001641205466232807
-0.02412051894 -0.1003156006 0.0005490813329390015 0.00016333559165539874
-0.01879905909 -0.1003156006 0.0005666984729217315 0.00016276280460624388
-0.01347760204 -0.1003156006 0.0005842416535548262 0.00016197850136996056
-0.00815614406 -0.1003156006 0.0005955682827899944 0.00016418075708851408
-0.00283468538 -0.1003156006 0.0006018115305594773 0.00016811313588167978
0.002486772602 -0.1003156006 0.0006071523485993926 0.00017296655534788723
0.007808230817 -0.1003156006 0.0006127170405622872 0.00017783730852075264
0.0131296888 -0.1003156006 0.0006193128220025412 0.0001819419334873414
0.01845114678 -0.1003156006 0.0006222203622101378 0.00017756811764225896
0.02377260476 -0.1003156006 0.0006229174646733248 0.00016616294816316983
0.02909406275 -0.1003156006 0.0006222598642864296 0.0001541617127352633
0.03441552073 -0.1003156006 0.0006213344833121419 0.00014216793667320662
0.03973697871 -0.1003156006 0.0006218611142871709 0.0001306876514749541
0.04505843669 -0.1003156006 0.0006305895736834513 0.00011794185834408708
0.05037989467 -0.1003156006 0.0006529387454647286 0.00010197784637605761
0.05570135266 -0.1003156006 0.0006762926343418038 8.530767351369886e-05
0.06102281436 -0.1003156006 0.0006991187726419673 6.850166565241542e-05
0.06634426862 -0.1003156006 0.0007221890806954255 5.232113106679757e-05
0.0716657266 -0.1003156006 0.0007448291167704113 3.6532092870556984e-05
0.07698718458 -0.1003156006 0.0007660011573895897 4.741217792640035e-05
0.08230864257 -0.1003156006 0.0007870724741162499 6.0131333807471116e-05
0.08763010055 -0.1003156006 0.0008097360347067811 7.377314390119154e-05
0.09295155853 -0.1003156006 0.0008308787963906305 8.657253928678774e-05
0.09827301651 -0.1003156006 0.0008521297392969215 9.881063841747441e-05
0.1035944745 -0.1003156006 0.0008633102351103079 0.0001103223120798621
0.1089159325 -0.1003156006 0.0008529349115045849 0.00011957585851052377
0.1142373979 -0.1003156006 0.0008428912869499937 0.0001288021995852753
0.1195588559 -0.1003156006 0.0008351269444941865 0.00013678208829775242
0.1248803139 -0.1003156006 0.0008264495318188404 0.00014527817385492534
0.1302017719 -0.1003156006 0.000817209247182174 0.00015399196854230134
0.1355232298 -0.1003156006 0.000806553189701602 0.0001484202667260864
0.1408446878 -0.1003156006 0.0007964289994018343 0.00013235474587597627
0.1461661458 -0.1003156006 0.0007864438972679395 0.0001171325554332426
0.1514876038 -0.1003156006 0.0007771388735435651 0.0001019065034977276
0.1568090618 -0.1003156006 0.0007673663728504898 8.668787495077139e-05
0.1621305197 -0.1003156006 0.0007584046308433305 7.149133707913989e-05
0.1674519777 -0.1003156006 0.0007644806039597623 5.373180566474322e-05
0.1727734357 -0.1003156006 0.0007765752620551312 3.44580171092289e-05
0.1780948937 -0.1003156006 0.0007890289290568057 1.5162754775757409e-05
0.1834163517 -0.1003156006 0.0008014097951536952 -4.1136538146802925e-06
0.1887378097 -0.1003156006 0.0008137936445160513 -2.262586706485091e-05
0.1940592676 -0.1003156006 0.0008257191181972066 -3.949666615883288e-05
0.1993807256 -0.1003156006 0.00084575604440523 -4.248726332821557e-05
0.2047021836 -0.1003156006 0.0008676459705935597 -4.108624069134853e-05
0.2100236416 -0.1003156006 0.0008900963648502168 -3.976724146505289e-05
0.2153450996 -0.1003156006 0.0009108664232354701 -3.837570459090431e-05
0.2206665576 -0.1003156006 0.0009320759854630973 -3.68217128130149e-05
0.2259880155 -0.1003156006 0.0009533715921257512 -3.527792190879288e-05
0.2313094735 -0.1003156006 0.0009603909828877042 -1.552139821879115e-05
0.2366309315 -0.1003156006 0.0009634820032711186 6.637325196681534e-06
0.2419523895 -0.1003156006 0.000966356351161348 2.7775526546329397e-05
0.2472738475 -0.1003156006 0.0009693542219391738 4.886576767234966e-05
0.2525953054 -0.1003156006 0.000973039749972948 6.921247663334103e-05
0.2579167783 -0.1003156006 0.0009764017221068236 8.846595902498604e-05
0.2632382214 -0.1003156006 0.0009628190452016013 9.812076138242697e-05
0.2685596943 -0.1003156006 0.0009440728322071422 0.00010531607043638447
0.2738811374 -0.1003156006 0.0009247852033830954 0.00011265323334048565
0.2792026103 -0.1003156006 0.0009064244749749972 0.0001198841695531701
0.2845240533 -0.1003156006 0.0008893438415174865 0.0001263402035571315
0.2898455262 -0.1003156006 0.0008716950858243006 0.00013274566592823538
0.2951669693 -0.1003156006 0.0008449632785198604 0.00012943106201276575
0.3004884422 -0.1003156006 0.0008170008772914179 0.00012423127634802954
0.3058098853 -0.1003156006 0.0007916500393530592 0.00011751956680425797
0.3111313581 -0.1003156006 0.0007661032688864785 0.00011083415480630844
0.3164528012 -0.1003156006 0.000740394112650515 0.0001041178795924109
0.3217742741 -0.1003156006 0.0007153164271004634 9.701650810396654e-05
0.3270957172 -0.1003156006 0.0006848354089685088 6.49931181144959e-05
0.3324171901 -0.1003156006 0.0006547854203903578 3.298560392592755e-05
0.3377386332 -0.1003156006 0.000624411202118864 9.617520020318944e-07
0.343060106 -0.1003156006 0.0005942092542351752 -3.1100367508213034e-05
0.3483815491 -0.1003156006 0.0005686403023553416 -6.162261237382137e-05
0.353703022 -0.1003156006 0.0005520099062702859 -0.0001009405485692334
0.3590244651 -0.1003156006 0.0005588835848049061 -0.00016146852592983392
0.364345938 -0.1003156006 0.0005652374543335167 -0.00022200455440958138
0.369667381 -0.1003156006 0.0005716067080884553 -0.0002764769484671773
0.3749888539 -0.1003156006 0.0005781562685848989 -0.0003324053090917357
0.380310297 -0.1003156006 0.0005849412141788726 -0.00038916923324750885
0.3856317699 -0.1003156006 0.0006266054329486185 -0.0004234583345986991
0.390953213 -0.1003156006 0.0006741768875253834 -0.00044907875380638466
0.3962746859 -0.1003156006 0.0007202583113802643 -0.0004743519299396563
0.4015961289 -0.1003156006 0.0007668760094258564 -0.000500090496552167
0.4069176018 -0.1003156006 0.0008132545075977757 -0.00052624739920954
0.4122390449 -0.1003156006 0.0008499373274069761 -0.0005345948934844216
0.4175605178 -0.1003156006 0.000883011386745439 -0.0005178823278469654
0.4228819609 -0.1003156006 0.0009162400064482366 -0.0004992691126098054
0.4282034338 -0.1003156006 0.0009496879027513714 -0.000481264643048388
0.4335248768 -0.1003156006 0.000978068645598983 -0.00046707411315583474
0.4388463497 -0.1003156006 0.000996718294302785 -0.0004499413224259768
0.4441677928 -0.1003156006 0.0009851572470138046 -0.00042588592801110116
0.4494892657 -0.1003156006 0.0009740400697908137 -0.0004029741996079214
0.4548107088 -0.1003156006 0.0009632289082266265 -0.00038369298152565436
0.4601321816 -0.1003156006 0.000952249140151011 -0.00036188530197743654
0.4654536247 -0.1003156006 0.0009299044379011812 -0.00034598428626463626
0.4707750976 -0.1003156006 0.0008925473993369994 -0.00034122705926363826
0.4760965407 -0.1003156006 0.0008567229741816955 -0.0003380403984432334
0.4814180136 -0.1003156006 0.0008208965186577861 -0.00033478984248508164
0.4867394567 -0.1003156006 0.0007854095975498675 -0.00033148373847332604
0.4920609295 -0.1003156006 0.0007430578479715701 -0.00034071299427035145
0.4973823726 -0.1003156006 0.0006998468140650069 -0.0003545567080197523
0.5027038455 -0.1003156006 0.0006569208364242388 -0.0003683643908635943
0.5080252886 -0.1003156006 0.0006142294466090323 -0.00038227624779797466
0.5133467317 -0.1003156006 0.0005705649656205631 -0.0004032611065942635
0.5186682343 -0.1003156006 0.0005220111632499244 -0.0004312864613941054
0.5239896774 -0.1003156006 0.0004729416311366908 -0.00045906705259488696
0.5293111205 -0.1003156006 0.0004247309689653722 -0.00048741133925889077
0.5346325636 -0.1003156006 0.00037528659835228077 -0.0005237556562147331
0.5399540663 -0.1003156006 0.00032040036632450283 -0.0005694232468008036
0.5452755094 -0.1003156006 0.00026344986237667427 -0.0006146356871431427
0.5505969524 -0.1003156006 0.0002096677362772686 -0.0006603996201517536
0.5559183955 -0.1003156006 0.00015718740128160477 -0.0007202324038058148
0.5612398982 -0.1003156006 9.954186161177473e-05 -0.0007865123111613157
0.5665613413 -0.1003156006 4.263757264337794e-05 -0.0008526145107375978
0.5718827844 -0.1003156006 -6.931018074703934e-06 -0.0009242014995645881
0.5772042274 -0.1003156006 -5.537760169551165e-05 -0.0010090483015138452
0.5825257301 -0.1003156006 -0.00010494493620177832 -0.001094110762635941
0.5878471732 -0.1003156006 -0.000146810052730989 -0.0011827829875218846
0.5931686163 -0.1003156006 -0.00018484806218878826 -0.0012805334908181703
0.5984900594 -0.1003156006 -0.00022351231885537153 -0.0013778022423895245
0.6038115621 -0.1003156006 -0.00025389974557759703 -0.0014818999076379354
0.6091330051 -0.1003156006 -0.00028262962059922306 -0.001586150766698505
0.6144544482 -0.1003156006 -0.00030851380584641933 -0.0016951178160270071
0.6197758913 -0.1003156006 -0.0003290127742171159 -0.0018039674564877828
0.625097394 -0.1003156006 -0.0003495082659642886 -0.0019151380360206232
0.6304188371 -0.1003156006 -0.0003667345087179407 -0.0020281557096300767
0.6357402802 -0.1003156006 -0.0003813376396325258 -0.002140605309191896
0.6410617828 -0.1003156006 -0.00039525506714809943 -0.002257098145179447
0.6463832259 -0.1003156006 -0.00040798607377492464 -0.0023716763443245004
0.651704669 -0.1003156006 -0.0004218130436689545 -0.0024874161746234248
0.6570261121 -0.1003156006 -0.00043525907613714245 -0.0026055501502586734
0.6623476148 -0.1003156006 -0.00045251195521350124 -0.002728279927868223
0.6676690578 -0.1003156006 -0.000469622998968877 -0.002852063115442146
0.6729905009 -0.1003156006 -0.0004904955392211588 -0.0029843873218785466
0.678311944 -0.1003156006 -0.0005104413943215794 -0.0031211770519745468
0.6836334467 -0.1003156006 -0.0005328377657731138 -0.0032639955976867365
0.6889548898 -0.1003156006 -0.0005599760581958967 -0.003417837749097909
0.6942763329 -0.1003156006 -0.0005857495899331803 -0.0035826340791000016
0.6995977759 -0.1003156006 -0.000611300280585261 -0.003757725664074067
0.7049192786 -0.1003156006 -0.0006387044633327843 -0.003941550512590671
0.7102407217 -0.1003156006 -0.0006675348807388052 -0.0041443087147632375
0.7155621648 -0.1003156006 -0.0006905162847811335 -0.004361484679109477
0.7208836079 -0.1003156006 -0.0007065901230342344 -0.004595394126393214
0.7262051105 -0.1003156006 -0.0007187965457646891 -0.004848589492049386
0.7315265536 -0.1003156006 -0.0007227245206396704 -0.005121618681820887
0.7368479967 -0.1003156006 -0.0007128703671715981 -0.005425865152332324
0.7421694398 -0.1003156006 -0.0006898401308211493 -0.005751698750473052
0.7474909425 -0.1003156006 -0.0006488718879450533 -0.006085530876511258
0.7528123856 -0.1003156006 -0.0005788428034659961 -0.006457434076189462
0.7581338286 -0.1003156006 -0.00048557537831458726 -0.006855172818598876
-0.3008363545 -0.09699654579 -0.00011511696832573747 0.0007166852977798712
-0.2955148816 -0.09699654579 -9.83180085749434e-05 0.000722925216360467
-0.2901934385 -0.09699654579 -9.629755004766883e-05 0.000731663452741957
-0.2848719656 -0.09699654579 -9.867623867108966e-05 0.0007323979946399704
-0.2795505226 -0.09699654579 -9.993444520753057e-05 0.0007347539738358147
-0.2742290497 -0.09699654579 -9.977165715929306e-05 0.0007320866468677499
-0.2689076066 -0.09699654579 -0.00010534586746044839 0.0007252156810333067
-0.2635861337 -0.09699654579 -0.00011762061019315943 0.000721252758135602
-0.2582646906 -0.09699654579 -0.0001455917572036018 0.0007359795589629476
-0.2529432178 -0.09699654579 -0.00017031579893231604 0.0007536576674095862
-0.2476217598 -0.09699654579 -0.00019897793962135116 0.000777246958636521
-0.2423003018 -0.09699654579 -0.00022711990219246534 0.000785836520669607
-0.2369788438 -0.09699654579 -0.0002631589719532565 0.000763466510183986
-0.2316573858 -0.09699654579 -0.0002978177177741291 0.0007405013652424891
-0.2263359278 -0.09699654579 -0.00033688766096356173 0.000711948172484416
-0.2210144699 -0.09699654579 -0.0003686048675314116 0.0006487992881871082
-0.2156930119 -0.09699654579 -0.00040289079746556953 0.0005617769487177876
-0.2103715539 -0.09699654579 -0.0004448887794147582 0.0004654041290472367
-0.2050500959 -0.09699654579 -0.00042313019744598184 0.0004131370328683473
-0.1997286379 -0.09699654579 -0.00037681686052808675 0.0003797084625046288
-0.19440718 -0.09699654579 -0.00032676453853916504 0.00033801307830684497
-0.189085722 -0.09699654579 -0.00027080304026564587 0.00028408047861174255
-0.183764264 -0.09699654579 -0.0002228328635765699 0.00023937800538446436
-0.178442806 -0.09699654579 -0.00017035547048636557 0.00019874413211482133
-0.173121348 -0.09699654579 -0.0001280828247310051 0.0001746849134794724
-0.16779989 -0.09699654579 -8.842194390748535e-05 0.00016742891713925447
-0.1624784321 -0.09699654579 -4.463694687521051e-05 0.00017176923774705875
-0.1571569741 -0.09699654579 -6.610444471819565e-06 0.0001753799911321422
-0.1518355161 -0.09699654579 2.2378138571858322e-05 0.0001781041966248093
-0.1465140581 -0.09699654579 5.270312091334846e-05 0.00018098833563504234
-0.1411926001 -0.09699654579 8.257248962696813e-05 0.00018019405630975452
-0.1358711421 -0.09699654579 0.00011064759376791338 0.00017032467639151638
-0.1305496842 -0.09699654579 0.00013968739215797425 0.000159475592656053
-0.1252282262 -0.09699654579 0.00017022432505272534 0.0001484978737373533
-0.1199067682 -0.09699654579 0.00019759757981552194 0.0001451150813580003
-0.1145853102 -0.09699654579 0.00022458305988213177 0.00014243821312237922
-0.1092638522 -0.09699654579 0.0002514818216844904 0.00014008085878294352
-0.1039423943 -0.09699654579 0.00027768938145000897 0.0001388426718568475
-0.09862093627 -0.09699654579 0.0002982877004102365 0.00014175068235605898
-0.09329947084 -0.09699654579 0.0003191729539119133 0.00014483559984782463
-0.08797801286 -0.09699654579 0.00033989584172900756 0.0001480783937026147
-0.08265655488 -0.09699654579 0.0003610540066517458 0.00015155460374705537
-0.0773350969 -0.09699654579 0.0003818023776018345 0.00015214902577512484
-0.07201363891 -0.09699654579 0.00040315782122863616 0.00015279643657623452
-0.06669218093 -0.09699654579 0.0004244019979623868 0.00015344483851597657
-0.06137072667 -0.09699654579 0.00044502876795938574 0.00015383343361250438
-0.05604926869 -0.09699654579 0.00046481648391589987 0.00015384617362886212
-0.05072781071 -0.09699654579 0.0004849878815880024 0.00015311728562656423
-0.045406349 -0.09699654579 0.0005049343319023757 0.00015237661381628314
-0.04008489102 -0.09699654579 0.0005247238256594841 0.0001519476996631735
-0.03476343304 -0.09699654579 0.0005434559973493116 0.00015234793369742444
-0.02944197692 -0.09699654579 0.0005599141343066316 0.0001528062409185409
-0.02412051894 -0.09699654579 0.0005765320457435885 0.00015302089686111385
-0.01879905909 -0.09699654579 0.0005933047056647819 0.00015345191632255766
-0.01347760204 -0.09699654579 0.0006096324195308765 0.0001542788964409073
-0.00815614406 -0.09699654579 0.0006188581629181471 0.00015815405543950133
-0.00283468538 -0.09699654579 0.0006226943485561536 0.00016385653060651677
0.002486772602 -0.09699654579 0.0006265608997062472 0.00016991180722672374
0.007808230817 -0.09699654579 0.0006298241722512565 0.00017607033881000096
0.0131296888 -0.09699654579 0.0006333438515579979 0.00018193827614798662
0.01845114678 -0.09699654579 0.0006337511047537209 0.00017730630046657584
0.02377260476 -0.09699654579 0.0006311734266594462 0.00016451437658989972
0.02909406275 -0.09699654579 0.000627740115298126 0.0001512292806695951
0.03441552073 -0.09699654579 0.0006237609226331056 0.0001378505944154303
0.03973697871 -0.09699654579 0.0006215770987405111 0.0001250274125241545
0.04505843669 -0.09699654579 0.0006291164278780962 0.00011035868198846755
0.05037989467 -0.09699654579 0.0006539134959455737 9.21570839028043e-05
0.05570135266 -0.09699654579 0.0006785346609716877 7.371043986176276e-05
0.06102281436 -0.09699654579 0.0007035375716678629 5.459641364143834e-05
0.06634426862 -0.09699654579 0.000727893187643873 3.6596414252627616e-05
0.0716657266 -0.09699654579 0.000752174061953018 1.8616712099596306e-05
0.07698718458 -0.09699654579 0.0007760205277916853 3.2856269494128116e-05
0.08230864257 -0.09699654579 0.0008002399940201764 4.8713034950032024e-05
0.08763010055 -0.09699654579 0.0008241174966108534 6.415754329049368e-05
0.09295155853 -0.09699654579 0.0008478231904381037 7.930053872181072e-05
0.09827301651 -0.09699654579 0.0008718319930975548 9.463784883356982e-05
0.1035944745 -0.09699654579 0.0008828965638613463 0.00010901775079849602
0.1089159325 -0.09699654579 0.0008702659838404687 0.00012083665760170935
0.1142373979 -0.09699654579 0.0008592169550444198 0.000131772393995445
0.1195588559 -0.09699654579 0.0008488295809156712 0.00014188968041677297
0.1248803139 -0.09699654579 0.0008384605046087426 0.00015200216168171688
0.1302017719 -0.09699654579 0.0008276200228563112 0.00016291983307582933
0.1355232298 -0.09699654579 0.0008154406599003788 0.00015634067869149253
0.1408446878 -0.09699654579 0.0008049225683457276 0.0001390623682657084
0.1461661458 -0.09699654579 0.0007948991860308749 0.00012177357479735717
0.1514876038 -0.09699654579 0.0007827461314090744 0.00010450686329450026
0.1568090618 -0.09699654579 0.0007706473218439674 8.727479121511555e-05
0.1621305197 -0.09699654579 0.0007595821127620468 7.089113733617277e-05
0.1674519777 -0.09699654579 0.0007667497548733231 5.1162230833947154e-05
0.1727734357 -0.09699654579 0.0007808643724139203 3.016581452271678e-05
0.1780948937 -0.09699654579 0.0007944813803766443 8.63266816555366e-06
0.1834163517 -0.09699654579 0.0008085448855037261 -1.2743243614562632e-05
0.1887378097 -0.09699654579 0.0008219739767230505 -3.30324541188913e-05
0.1940592676 -0.09699654579 0.0008358995585769943 -5.3336283859424775e-05
0.1993807256 -0.09699654579 0.0008593019499888118 -5.691304291658603e-05
0.2047021836 -0.09699654579 0.0008851233954012684 -5.605858126488447e-05
0.2100236416 -0.09699654579 0.0009093416985604998 -5.600592907548777e-05
0.2153450996 -0.09699654579 0.0009340671417452712 -5.588166602287248e-05
0.2206665576 -0.09699654579 0.000958283180123653 -5.576352445041209e-05
0.2259880155 -0.09699654579 0.0009827256476696736 -5.567152605898475e-05
0.2313094735 -0.09699654579 0.000991488212788697 -3.4462117617365943e-05
0.2366309315 -0.09699654579 0.0009939829962031929 -8.14830538166787e-06
0.2419523895 -0.09699654579 0.0009965221592098336 1.8148996733283257e-05
0.2472738475 -0.09699654579 0.0009987727127632 4.4453309766359254e-05
0.2525953054 -0.09699654579 0.0010022878389063712 6.867357804741774e-05
0.2579167783 -0.09699654579 0.0010050474934599008 9.130091924951708e-05
0.2632382214 -0.09699654579 0.0009871182118327555 0.00010299405691005413
0.2685596943 -0.09699654579 0.000965643423956011 0.00011193024863134553
0.2738811374 -0.09699654579 0.0009451726323214667 0.00012045522321493681
0.2792026103 -0.09699654579 0.0009255163511184478 0.0001279130631942879
0.2845240533 -0.09699654579 0.0009062881169323632 0.00013574423748158668
0.2898455262 -0.09699654579 0.0008852511966059135 0.00014380217459579122
0.2951669693 -0.09699654579 0.0008552198161336855 0.00014176972561648493
0.3004884422 -0.09699654579 0.000826125998858595 0.00013699763729789756
0.3058098853 -0.09699654579 0.0007964388081471126 0.00013247577132634221
0.3111313581 -0.09699654579 0.0007673816627754353 0.00012799363291985386
0.3164528012 -0.09699654579 0.0007392019137283647 0.0001230544588820339
0.3217742741 -0.09699654579 0.0007120333708701514 0.0001155089054140875
0.3270957172 -0.09699654579 0.0006760793760099901 8.21339257920648e-05
0.3324171901 -0.09699654579 0.0006399825795909387 4.873785173682998e-05
0.3377386332 -0.09699654579 0.0006061007372064886 1.569329986701602e-05
0.343060106 -0.09699654579 0.0005736199722618275 -1.7051156789483974e-05
0.3483815491 -0.09699654579 0.0005407386601728575 -4.965351725853954e-05
0.353703022 -0.09699654579 0.0005213333462762661 -9.515689589892248e-05
0.3590244651 -0.09699654579 0.0005274850902481111 -0.00016299361950624448
0.364345938 -0.09699654579 0.0005345387758741827 -0.000226396082294766
0.369667381 -0.09699654579 0.0005408830349587626 -0.00028974082998349337
0.3749888539 -0.09699654579 0.0005475420245625671 -0.00035333629500973495
0.380310297 -0.09699654579 0.0005542326099792837 -0.00041360278165445265
0.3856317699 -0.09699654579 0.0005979167533885407 -0.00044687960883740905
0.390953213 -0.09699654579 0.000653101159265461 -0.00047430620496013255
0.3962746859 -0.09699654579 0.0007104365476209208 -0.000502208627722161
0.4015961289 -0.09699654579 0.0007636740955097446 -0.0005291968562043822
0.4069176018 -0.09699654579 0.00081362986041427 -0.0005553609378662482
0.4122390449 -0.09699654579 0.0008587249724497581 -0.0005596764507970441
0.4175605178 -0.09699654579 0.0008965469499367122 -0.0005350749113410216
0.4228819609 -0.09699654579 0.0009308853802658872 -0.0005149926579069701
0.4282034338 -0.09699654579 0.0009639081999347392 -0.0004958554898717851
0.4335248768 -0.09699654579 0.0009973775756366428 -0.00047666671740301546
0.4388463497 -0.09699654579 0.0010185425022867553 -0.00045192372239696177
0.4441677928 -0.09699654579 0.0010057754396388693 -0.00042464644275931113
0.4494892657 -0.09699654579 0.0009934780116419714 -0.0003973628435257884
0.4548107088 -0.09699654579 0.0009809015132130408 -0.0003703132226166607
0.4601321816 -0.09699654579 0.0009692762482006067 -0.00034442511634778116
0.4654536247 -0.09699654579 0.0009463713342243287 -0.0003289773476442961
0.4707750976 -0.09699654579 0.0009074370358684504 -0.00032297418134327646
0.4760965407 -0.09699654579 0.0008657245583291333 -0.000315934899088505
0.4814180136 -0.09699654579 0.0008266836597340301 -0.00030993492299664444
0.4867394567 -0.09699654579 0.0007885821449984812 -0.0003052258706241985
0.4920609295 -0.09699654579 0.0007446978951544721 -0.0003143724655851439
0.4973823726 -0.09699654579 0.0006982009456183255 -0.00032736288363821077
0.5027038455 -0.09699654579 0.0006543615732007796 -0.00034061023100550713
0.5080252886 -0.09699654579 0.0006094266657281851 -0.00035400364392001223
0.5133467317 -0.09699654579 0.0005610983382694567 -0.0003731528604500604
0.5186682343 -0.09699654579 0.0005093584482833052 -0.0003997941681762138
0.5239896774 -0.09699654579 0.0004599062218805382 -0.00042782566272822766
0.5293111205 -0.09699654579 0.00040945693679279334 -0.00045531477396609554
0.5346325636 -0.09699654579 0.0003533091296810755 -0.0004894899886845331
0.5399540663 -0.09699654579 0.00029489247831980016 -0.0005350108708633726
0.5452755094 -0.09699654579 0.00023756229197610822 -0.0005804106353334392
0.5505969524 -0.09699654579 0.00017918207215576284 -0.0006259987898078296
0.5559183955 -0.09699654579 0.00011830488664254287 -0.0006869923320685801
0.5612398982 -0.09699654579 5.99151514771988e-05 -0.0007530237887057764
0.5665613413 -0.09699654579 2.1017927516551304e-06 -0.000819243499368015
0.5718827844 -0.09699654579 -5.7152762776552835e-05 -0.0008941977504855636
0.5772042274 -0.09699654579 -0.00010717745283961077 -0.000979869395983577
0.5825257301 -0.09699654579 -0.00015675924019260202 -0.0010654997020930902
0.5878471732 -0.09699654579 -0.0002066820475922302 -0.0011580337695432394
0.5931686163 -0.09699654579 -0.0002463881253222875 -0.0012566367814717768
0.5984900594 -0.09699654579 -0.0002864370916033743 -0.0013573733322865375
0.6038115621 -0.09699654579 -0.0003200590840636415 -0.0014625328068265727
0.6091330051 -0.09699654579 -0.00034845389804468504 -0.0015709160845894434
0.6144544482 -0.09699654579 -0.00037593337786013924 -0.0016797442090207904
0.6197758913 -0.09699654579 -0.00039794193629533165 -0.0017913578252111483
0.625097394 -0.09699654579 -0.00041765207456929184 -0.0019027913727476164
0.6304188371 -0.09699654579 -0.00043438854511657695 -0.002018419934980613
0.6357402802 -0.09699654579 -0.0004516310212639179 -0.0021327548637317738
0.6410617828 -0.09699654579 -0.0004654823074708404 -0.002246082913434429
0.6463832259 -0.09699654579 -0.00048127537422833693 -0.002361868599089992
0.651704669 -0.09699654579 -0.0004961644699312403 -0.002476635799270208
0.6570261121 -0.09699654579 -0.0005128349924249607 -0.0025956854006079695
0.6623476148 -0.09699654579 -0.0005306235022408426 -0.0027163044738990855
0.6676690578 -0.09699654579 -0.0005496712701533597 -0.002843322542048467
0.6729905009 -0.09699654579 -0.0005728521623437409 -0.0029725237632172775
0.678311944 -0.09699654579 -0.0005988099751304582 -0.0031065603694666803
0.6836334467 -0.09699654579 -0.0006263925444190688 -0.003247674325156545
0.6889548898 -0.09699654579 -0.0006561085327180017 -0.0033985680046217043
0.6942763329 -0.09699654579 -0.0006898127908990227 -0.003562522740415071
0.6995977759 -0.09699654579 -0.0007266511437686714 -0.003736730761055797
0.7049192786 -0.09699654579 -0.0007615658572450119 -0.003921247362999272
0.7102407217 -0.09699654579 -0.0007964933035869855 -0.004122982619408283
0.7155621648 -0.09699654579 -0.0008293821221304779 -0.004343717534297523
0.7208836079 -0.09699654579 -0.0008615331515442531 -0.004584167038929983
0.7262051105 -0.09699654579 -0.0008866407556116492 -0.004844170139676402
0.7315265536 -0.09699654579 -0.0009073026969376377 -0.0051193192201566765
0.7368479967 -0.09699654579 -0.0009144757051327017 -0.005427131857499025
0.7421694398 -0.09699654579 -0.0009037793057743471 -0.0057606728697767425
0.7474909425 -0.09699654579 -0.000880108967719629 -0.006120957968284532
0.7528123856 -0.09699654579 -0.0008288462847272539 -0.006507840076208724
0.7581338286 -0.09699654579 -0.0007444846446764681 -0.006919291300667912
-0.3008363545 -0.09367749095 -0.00012206783012085276 0.0007130153004005624
-0.2955148816 -0.09367749095 -0.00010812483667964712 0.0007212789817615536
-0.2901934385 -0.09367749095 -0.00010248117340868616 0.0007384266543918004
-0.2848719656 -0.09367749095 -9.950972905854594e-05 0.0007462305485038105
-0.2795505226 -0.09367749095 -9.993568126101304e-05 0.0007493272299243104
-0.2742290497 -0.09367749095 -0.00010231141763486636 0.0007470262568394491
-0.2689076066 -0.09367749095 -0.00010681132412548314 0.0007421846376269189
-0.2635861337 -0.09367749095 -0.0001303665336074192 0.0007364806725392466
-0.2582646906 -0.09367749095 -0.00015237620494205163 0.0007449814218347784
-0.2529432178 -0.09367749095 -0.0001818882431243204 0.0007589895283332525