VARIABLES = X,Y,phix,phiy
ZONE I=200,J=200,F=POINT 
-0.3008363545 -0.1003156006 -0.0016728840082607425 0.0009715233468989089
-0.2955148816 -0.1003156006 -0.0016764242113633428 0.0009461943466589962
-0.2901934385 -0.1003156006 -0.001667421008996984 0.0009301012118741907
-0.2848719656 -0.1003156006 -0.0016605872139247222 0.0009184836611512686
-0.2795505226 -0.1003156006 -0.0016580730493299376 0.0009062002059036355
-0.2742290497 -0.1003156006 -0.0016628619243573566 0.0008826575460958862
-0.2689076066 -0.1003156006 -0.0016546483741174403 0.0008551493204575916
-0.2635861337 -0.1003156006 -0.001638397363602802 0.0008282400191252434
-0.2582646906 -0.1003156006 -0.0016277645625144448 0.0007959753197147104
-0.2529432178 -0.1003156006 -0.0016165120514112122 0.000755841843933872
-0.2476217598 -0.1003156006 -0.0016064265361702703 0.0007187356427609987
-0.2423003018 -0.1003156006 -0.0015837188884762641 0.0007064258199462704
-0.2369788438 -0.1003156006 -0.001567632676848192 0.0007057047836486724
-0.2316573858 -0.1003156006 -0.0015503580093985242 0.0007133462868630072
-0.2263359278 -0.1003156006 -0.0015277806807173873 0.000727648978102843
-0.2210144699 -0.1003156006 -0.0014665136716181155 0.0007139463019230136
-0.2156930119 -0.1003156006 -0.00140007613538481 0.0006984103753970654
-0.2103715539 -0.1003156006 -0.0013150461025404983 0.0006804739156660788
-0.2050500959 -0.1003156006 -0.0013157736840467122 0.0006802912959763794
-0.1997286379 -0.1003156006 -0.001325299181843959 0.0006612210025799786
-0.19440718 -0.1003156006 -0.0013267881410728303 0.0006458595491190208
-0.189085722 -0.1003156006 -0.00131536647096475 0.0006421883061842499
-0.183764264 -0.1003156006 -0.0013030533559060867 0.0006520614739593132
-0.178442806 -0.1003156006 -0.0012921903391513126 0.0006671208423207019
-0.173121348 -0.1003156006 -0.001263101409497862 0.0006629027366108495
-0.16779989 -0.1003156006 -0.0012314222203792717 0.0006578031914701649
-0.1624784321 -0.1003156006 -0.0012044646007053216 0.0006470050577711632
-0.1571569741 -0.1003156006 -0.001189806297840873 0.0006442668505109569
-0.1518355161 -0.1003156006 -0.0011838882799613403 0.0006471068214769723
-0.1465140581 -0.1003156006 -0.0011774410314203724 0.0006518971435422456
-0.1411926001 -0.1003156006 -0.0011787097868267368 0.0006604017548290273
-0.1358711421 -0.1003156006 -0.0011847244855039889 0.0006714645251202341
-0.1305496842 -0.1003156006 -0.0011909143425675997 0.0006825434981504085
-0.1252282262 -0.1003156006 -0.0011995766350312233 0.0006920869680762791
-0.1199067682 -0.1003156006 -0.0012061484205088263 0.000683764268113398
-0.1145853102 -0.1003156006 -0.0012126621035494056 0.0006696851493952797
-0.1092638522 -0.1003156006 -0.0012190918412682782 0.0006554048242599826
-0.1039423943 -0.1003156006 -0.0012258191198254843 0.0006421925115451458
-0.09862093627 -0.1003156006 -0.0012292451577721967 0.0006107813491146799
-0.09329947084 -0.1003156006 -0.0012339950299029001 0.0005790395128525025
-0.08797801286 -0.1003156006 -0.0012388749173624627 0.0005472861672970783
-0.08265655488 -0.1003156006 -0.0012455466257569525 0.0005158825410696917
-0.0773350969 -0.1003156006 -0.001242263854565111 0.0004913241523524121
-0.07201363891 -0.1003156006 -0.0012386427379845238 0.0004674077317471543
-0.06669218093 -0.1003156006 -0.001235377614277323 0.0004434818198016672
-0.06137072667 -0.1003156006 -0.0012319527603486524 0.00041758312351824865
-0.05604926869 -0.1003156006 -0.0012176500082736654 0.0003970981672010909
-0.05072781071 -0.1003156006 -0.0012007281973011059 0.0003778342636263562
-0.045406349 -0.1003156006 -0.0011844636827209915 0.00035954144741752453
-0.04008489102 -0.1003156006 -0.0011664070772268397 0.0003395360601198207
-0.03476343304 -0.1003156006 -0.0011449535218269107 0.0003168082961838661
-0.02944197692 -0.1003156006 -0.0011137929846597506 0.00028727924481500126
-0.02412051894 -0.1003156006 -0.0010821069448030541 0.0002572780139398851
-0.01879905909 -0.1003156006 -0.00105038805079692 0.00022639306191387824
-0.01347760204 -0.1003156006 -0.0010192887257336482 0.00019647129380992722
-0.00815614406 -0.1003156006 -0.0009758069147708005 0.00017680587296693554
-0.00283468538 -0.1003156006 -0.0009220836105895931 0.0001651036812354696
0.002486772602 -0.1003156006 -0.0008646463971211021 0.0001530792784501933
0.007808230817 -0.1003156006 -0.0008069698704939157 0.0001411268885763267
0.0131296888 -0.1003156006 -0.0007523700480031271 0.0001293251466415414
0.01845114678 -0.1003156006 -0.0007075156685117295 0.00014294287913793464
0.02377260476 -0.1003156006 -0.0006693770716631949 0.00017698453796876165
0.02909406275 -0.1003156006 -0.0006291424619259975 0.0002132232946105986
0.03441552073 -0.1003156006 -0.0005893566840344195 0.00024946742070713256
0.03973697871 -0.1003156006 -0.0005511500873234808 0.00028381887211344084
0.04505843669 -0.1003156006 -0.0005324232375258041 0.00031200230820138566
0.05037989467 -0.1003156006 -0.0005390702176014453 0.00032910311917763274
0.05570135266 -0.1003156006 -0.0005464355171397542 0.00034743676533238754
0.06102281436 -0.1003156006 -0.0005539260776837773 0.0003656423645891888
0.06634426862 -0.1003156006 -0.0005606273181876988 0.0003828958228006632
0.0716657266 -0.1003156006 -0.0005670544353568247 0.00039968375022794207
0.07698718458 -0.1003156006 -0.0005709580979733379 0.00039338586595844916
0.08230864257 -0.1003156006 -0.000574198439323179 0.00038465454895820816
0.08763010055 -0.1003156006 -0.0005773836525678375 0.000375749718987442
0.09295155853 -0.1003156006 -0.0005811199595410538 0.0003672363684339505
0.09827301651 -0.1003156006 -0.0005845935587547291 0.00035888971466989644
0.1035944745 -0.1003156006 -0.0005873013951697238 0.00034993510012622524
0.1089159325 -0.1003156006 -0.0005807790659186641 0.00033898655100748074
0.1142373979 -0.1003156006 -0.0005738932822642251 0.0003280397982615821
0.1195588559 -0.1003156006 -0.0005686448552486029 0.00031733665813316145
0.1248803139 -0.1003156006 -0.0005628578060390558 0.0003069573107771633
0.1302017719 -0.1003156006 -0.0005570150276369615 0.0002958989488099781
0.1355232298 -0.1003156006 -0.0005534780729762026 0.0002886401234300972
0.1408446878 -0.1003156006 -0.0005512187156636439 0.00028496813112263453
0.1461661458 -0.1003156006 -0.000548986813028412 0.0002799162443560417
0.1514876038 -0.1003156006 -0.000546303953142687 0.00027488869793137143
0.1568090618 -0.1003156006 -0.0005441306077309406 0.0002698781606589806
0.1621305197 -0.1003156006 -0.000541491704483215 0.00026498577560931107
0.1674519777 -0.1003156006 -0.0005544242251162004 0.0002330954023729742
0.1727734357 -0.1003156006 -0.0005727254121351359 0.00019123692510278036
0.1780948937 -0.1003156006 -0.0005913958556364303 0.0001493744543992713
0.1834163517 -0.1003156006 -0.0006101966028975934 0.00010749655423482385
0.1887378097 -0.1003156006 -0.0006267729210909417 6.541218798961447e-05
0.1940592676 -0.1003156006 -0.0006393289742469288 2.448986968602231e-05
0.1993807256 -0.1003156006 -0.0005955789718619787 -4.127779144813958e-05
0.2047021836 -0.1003156006 -0.0005338338998193087 -0.00011591209453624793
0.2100236416 -0.1003156006 -0.00047157868507074016 -0.0001901062332962487
0.2153450996 -0.1003156006 -0.0004101974894051061 -0.00025648475916677856
0.2206665576 -0.1003156006 -0.0003491982171494819 -0.000325760431990994
0.2259880155 -0.1003156006 -0.00028861155404069557 -0.000395191519493555
0.2313094735 -0.1003156006 -0.00016557849885583093 -0.00039640152984984136
0.2366309315 -0.1003156006 -3.2978516265282235e-05 -0.0003759716603825495
0.2419523895 -0.1003156006 9.642240478441216e-05 -0.00035582333943980955
0.2472738475 -0.1003156006 0.00022589603232242678 -0.00033603267511755935
0.2525953054 -0.1003156006 0.00035404399690846876 -0.00031646207907242764
0.2579167783 -0.1003156006 0.0004769426816363205 -0.00029625800642548247
0.2632382214 -0.1003156006 0.0005469597106510508 -0.00019563865599432476
0.2685596943 -0.1003156006 0.000605287394693551 -7.199601845161806e-05
0.2738811374 -0.1003156006 0.000665016078438288 5.5806009756873024e-05
0.2792026103 -0.1003156006 0.0007233103460375598 0.00018007722672299905
0.2845240533 -0.1003156006 0.0007784581134802424 0.00029533395415963173
0.2898455262 -0.1003156006 0.0008337897914072166 0.0004106079433626991
0.2951669693 -0.1003156006 0.0007785233923421538 0.0005125168754125574
0.3004884422 -0.1003156006 0.0007056009667297592 0.000611139742934996
0.3058098853 -0.1003156006 0.0006405414670137298 0.0007020133855089685
0.3111313581 -0.1003156006 0.0005753249427965118 0.0007928158255361045
0.3164528012 -0.1003156006 0.0005107183930525239 0.0008837212016705737
0.3217742741 -0.1003156006 0.00044511350384197006 0.0009724270324561167
0.3270957172 -0.1003156006 0.0003412587704529398 0.0009662396004039451
0.3324171901 -0.1003156006 0.00023646991731505104 0.0009605076837394456
0.3377386332 -0.1003156006 0.00013125292077698105 0.0009547123209414007
0.343060106 -0.1003156006 2.778107095376612e-05 0.0009488421028262325
0.3483815491 -0.1003156006 -6.67603156523004e-05 0.0009432748136637317
0.353703022 -0.1003156006 -0.0001471230286907813 0.0009167911050006985
0.3590244651 -0.1003156006 -0.00019981153228468547 0.0008399840635429607
0.364345938 -0.1003156006 -0.00025155182032924597 0.0007632891168732883
0.369667381 -0.1003156006 -0.0002966012847373013 0.0006932795250393838
0.3749888539 -0.1003156006 -0.0003424631020032185 0.0006216827563747448
0.380310297 -0.1003156006 -0.00039098498093107463 0.0005492152557308297
0.3856317699 -0.1003156006 -0.0003775936498940048 0.00045520285810029333
0.390953213 -0.1003156006 -0.0003457096914747901 0.00036452116855954065
0.3962746859 -0.1003156006 -0.0003145534419075514 0.0002739014327003002
0.4015961289 -0.1003156006 -0.0002848296107652328 0.00018315769033472784
0.4069176018 -0.1003156006 -0.0002564443301746594 9.281579065894116e-05
0.4122390449 -0.1003156006 -0.00020520124915133313 2.8704575023011847e-05
0.4175605178 -0.1003156006 -0.00011363358519794167 -1.027488816971868e-05
0.4228819609 -0.1003156006 -1.7464663003324324e-05 -5.2217773294726184e-05
0.4282034338 -0.1003156006 7.792903806065324e-05 -9.291343270530159e-05
0.4335248768 -0.1003156006 0.00016275716807340074 -0.00012995369079386905
0.4388463497 -0.1003156006 0.00024759428591448356 -0.00014922344000337787
0.4441677928 -0.1003156006 0.0003326159164904469 -0.00011608540993896636
0.4494892657 -0.1003156006 0.00041512543242243317 -8.389000950164654e-05
0.4548107088 -0.1003156006 0.0004906137783539129 -5.510702459440364e-05
0.4601321816 -0.1003156006 0.0005719665204315814 -2.416407035316202e-05
0.4654536247 -0.1003156006 0.0006347371876321178 1.9980651322502874e-05
0.4707750976 -0.1003156006 0.0006661575473820437 8.260360521053479e-05
0.4760965407 -0.1003156006 0.0006964084111304102 0.00014041640100997371
0.4814180136 -0.1003156006 0.0007264803140385403 0.0001982198732189161
0.4867394567 -0.1003156006 0.0007566304203470135 0.0002563295311375176
0.4920609295 -0.1003156006 0.0007519926730311657 0.00031236052473475475
0.4973823726 -0.1003156006 0.0007376777757691515 0.00036597780100390277
0.5027038455 -0.1003156006 0.0007246474754596138 0.0004199144673113174
0.5080252886 -0.1003156006 0.0007112605909610481 0.0004737096190393579
0.5133467317 -0.1003156006 0.00069115427800359 0.0005115914104805695
0.5186682343 -0.1003156006 0.0006526862343327329 0.0005379783288112029
0.5239896774 -0.1003156006 0.0006133773951486742 0.0005644819062175842
0.5293111205 -0.1003156006 0.0005756906677332019 0.0005904884354673266
0.5346325636 -0.1003156006 0.0005425948390876723 0.0006025795524071988
0.5399540663 -0.1003156006 0.0005028462590220053 0.0005981789182374096
0.5452755094 -0.1003156006 0.0004607583473396545 0.0005933265294425571
0.5505969524 -0.1003156006 0.0004240348839847373 0.0005896008020736553
0.5559183955 -0.1003156006 0.00039742809324587745 0.000571217954744995
0.5612398982 -0.1003156006 0.0003680949911030415 0.0005443573480128928
0.5665613413 -0.1003156006 0.0003385301606586748 0.0005179548253448106
0.5718827844 -0.1003156006 0.0003208610890590999 0.0004897477111377077
0.5772042274 -0.1003156006 0.0003077731101709762 0.0004501486016504411
0.5825257301 -0.1003156006 0.0002942699848238152 0.00041042279392640283
0.5878471732 -0.1003156006 0.00028902946125226615 0.00037011445930963644
0.5931686163 -0.1003156006 0.0002921384549756329 0.000325122880148272
0.5984900594 -0.1003156006 0.00029639939359769315 0.00027950209133800025
0.6038115621 -0.1003156006 0.00031075214286923784 0.00023077224625421788
0.6091330051 -0.1003156006 0.0003292248547775762 0.00018332585949568718
0.6144544482 -0.1003156006 0.00035229647511824086 0.000133583131934855
0.6197758913 -0.1003156006 0.00038174285050366805 8.675000896442917e-05
0.625097394 -0.1003156006 0.00041548520887967473 4.07163592390448e-05
0.6304188371 -0.1003156006 0.00045536037150890353 -3.3976822317289457e-06
0.6357402802 -0.1003156006 0.00049870266013618 -4.333030697576066e-05
0.6410617828 -0.1003156006 0.0005484588391801438 -8.088922185573473e-05
0.6463832259 -0.1003156006 0.0006017428820077742 -0.00011612153910477635
0.651704669 -0.1003156006 0.0006568231952998022 -0.00014885975429071568
0.6570261121 -0.1003156006 0.0007157963530132882 -0.00017427526636461086
0.6623476148 -0.1003156006 0.0007762868843110502 -0.00019693015714616747
0.6676690578 -0.1003156006 0.0008386622321160045 -0.00021707581037602787
0.6729905009 -0.1003156006 0.0009033290064949847 -0.00023171394182801454
0.678311944 -0.1003156006 0.0009692327573947528 -0.0002436159887309857
0.6836334467 -0.1003156006 0.0010368240615227162 -0.0002525542500348168
0.6889548898 -0.1003156006 0.0011057454076818913 -0.0002583148967077453
0.6942763329 -0.1003156006 0.0011757203220946332 -0.00026160709629767114
0.6995977759 -0.1003156006 0.0012462157199196317 -0.0002609988355934945
0.7049192786 -0.1003156006 0.001320118133967945 -0.0002581919983449482
0.7102407217 -0.1003156006 0.0013964219730207795 -0.0002513179669322651
0.7155621648 -0.1003156006 0.001474552005755101 -0.00023896701317733
0.7208836079 -0.1003156006 0.0015537470809441158 -0.00022177277349237368
0.7262051105 -0.1003156006 0.0016357633617011382 -0.00019942177647671702
0.7315265536 -0.1003156006 0.0017196647680469935 -0.00017088740351234617
0.7368479967 -0.1003156006 0.0018056647779050533 -0.00013148541164846025
0.7421694398 -0.1003156006 0.0018931206505170162 -8.49597083544419e-05
0.7474909425 -0.1003156006 0.0019770982361528157 -3.1482981476943115e-05
0.7528123856 -0.1003156006 0.0020581600908675356 3.647230258029715e-05
0.7581338286 -0.1003156006 0.0021388827715725194 0.0001177773530924306
-0.3008363545 -0.09699654579 -0.0016667249876313808 0.0009790605398375945
-0.2955148816 -0.09699654579 -0.0016839395585888444 0.0009460769836360934
-0.2901934385 -0.09699654579 -0.0016785533573643958 0.0009258314137823107
-0.2848719656 -0.09699654579 -0.0016728183364887283 0.0009150085281341122
-0.2795505226 -0.09699654579 -0.0016739261207254848 0.0008983864424187328
-0.2742290497 -0.09699654579 -0.0016756304886476276 0.0008760582056738859
-0.2689076066 -0.09699654579 -0.0016616063586161118 0.0008440911058848149
-0.2635861337 -0.09699654579 -0.00163045395287648 0.0008153433445080994
-0.2582646906 -0.09699654579 -0.0016146626986593168 0.0007810753694488672
-0.2529432178 -0.09699654579 -0.0016044889060887585 0.0007449119602495588
-0.2476217598 -0.09699654579 -0.0015923179028478995 0.0007030765159363364
-0.2423003018 -0.09699654579 -0.0015668004119087453 0.0006783131561075667
-0.2369788438 -0.09699654579 -0.0015444878415903003 0.0006797010177144611
-0.2316573858 -0.09699654579 -0.001530139661156586 0.0006922056316461855
-0.2263359278 -0.09699654579 -0.0015271711595973283 0.0007169784482174222
-0.2210144699 -0.09699654579 -0.0014706227430620875 0.0007111126903791863
-0.2156930119 -0.09699654579 -0.0013877168459507424 0.000695234071422
-0.2103715539 -0.09699654579 -0.0013088993499598682 0.0006573603975656813
-0.2050500959 -0.09699654579 -0.0012937638310696912 0.0006365984325357637
-0.1997286379 -0.09699654579 -0.001295484368153248 0.000621490755715516
-0.19440718 -0.09699654579 -0.0012966408039883812 0.0006231786869401913
-0.189085722 -0.09699654579 -0.0012884072542305668 0.0006458700582546529
-0.183764264 -0.09699654579 -0.0012799110373767654 0.00065830439963699
-0.178442806 -0.09699654579 -0.001257091294118571 0.0006497953871984407
-0.173121348 -0.09699654579 -0.0012316331102608462 0.0006433669780291965
-0.16779989 -0.09699654579 -0.0012059247455246099 0.0006300373851179211
-0.1624784321 -0.09699654579 -0.0011844038888448078 0.0006122506125501918
-0.1571569741 -0.09699654579 -0.001175592496901352 0.0006250985791316152
-0.1518355161 -0.09699654579 -0.0011766261607460008 0.0006363527841810072
-0.1465140581 -0.09699654579 -0.0011820391735510387 0.0006502673114412355
-0.1411926001 -0.09699654579 -0.001187290376732156 0.0006656751537653766
-0.1358711421 -0.09699654579 -0.0011965272957396825 0.000675053512710058
-0.1305496842 -0.09699654579 -0.0012058765938037063 0.0006844390327024162
-0.1252282262 -0.09699654579 -0.001219358457259257 0.0006951824141694881
-0.1199067682 -0.09699654579 -0.0012322441281193617 0.0006878993984141123
-0.1145853102 -0.09699654579 -0.0012431001825017672 0.00067500411173133
-0.1092638522 -0.09699654579 -0.0012542869580364291 0.0006617321098895866
-0.1039423943 -0.09699654579 -0.0012678506963822733 0.0006487900901618092
-0.09862093627 -0.09699654579 -0.00127827824893624 0.0006181300784670469
-0.09329947084 -0.09699654579 -0.0012898626548461627 0.000587075356077954
-0.08797801286 -0.09699654579 -0.0013035524181531104 0.0005558010516756885
-0.08265655488 -0.09699654579 -0.0013145948755869383 0.0005255558222777718
-0.0773350969 -0.09699654579 -0.0013114761928935282 0.0004989381104020296
-0.07201363891 -0.09699654579 -0.0013078143641474312 0.0004717734795299124
-0.06669218093 -0.09699654579 -0.0013048982147751444 0.00044449813510631664
-0.06137072667 -0.09699654579 -0.0013017516142337538 0.0004159769790693846
-0.05604926869 -0.09699654579 -0.0012835922501881454 0.0003916671439102116
-0.05072781071 -0.09699654579 -0.0012631626747985204 0.00036980810428011455
-0.045406349 -0.09699654579 -0.0012428684247534573 0.0003479620530938953
-0.04008489102 -0.09699654579 -0.0012211753240207721 0.00032521178884731906
-0.03476343304 -0.09699654579 -0.00119502519168908 0.0002991313292622366
-0.02944197692 -0.09699654579 -0.0011623511132235476 0.00026582059943341496
-0.02412051894 -0.09699654579 -0.0011299527655334095 0.00023289960183287285
-0.01879905909 -0.09699654579 -0.001096910651464997 0.00019955705439949717
-0.01347760204 -0.09699654579 -0.001063634872898756 0.00016542482515868908
-0.00815614406 -0.09699654579 -0.0010156780196461327 0.00014364731468674108
-0.00283468538 -0.09699654579 -0.000954990890740279 0.0001313709074350857
0.002486772602 -0.09699654579 -0.0008925083522829853 0.00011903530497906479
0.007808230817 -0.09699654579 -0.000830460838026725 0.0001064046239934108
0.0131296888 -0.09699654579 -0.0007685497788736196 9.407815058135395e-05
0.01845114678 -0.09699654579 -0.0007184559182959727 0.00011121342681764231
0.02377260476 -0.09699654579 -0.0006759040491369579 0.00015061456862434298
0.02909406275 -0.09699654579 -0.0006314370645008106 0.0001921953869956013
0.03441552073 -0.09699654579 -0.0005867000429488149 0.00023409427728508526
0.03973697871 -0.09699654579 -0.0005438826848400291 0.0002737511597498417
0.04505843669 -0.09699654579 -0.0005243694402121993 0.0003064875336938849
0.05037989467 -0.09699654579 -0.0005334876542680497 0.00032614604907047157
0.05570135266 -0.09699654579 -0.0005426092540821505 0.00034627790105737637
0.06102281436 -0.09699654579 -0.0005528143159003733 0.0003667954013384276
0.06634426862 -0.09699654579 -0.0005619330603473945 0.00038612684943288534
0.0716657266 -0.09699654579 -0.0005708558201590217 0.00040547643046544415
0.07698718458 -0.09699654579 -0.0005752740571935445 0.00039719881961080823
0.08230864257 -0.09699654579 -0.0005793727173106139 0.000386653972880601
0.08763010055 -0.09699654579 -0.0005837049602579103 0.00037682026856009136
0.09295155853 -0.09699654579 -0.0005874383554822553 0.00036699400633970013
0.09827301651 -0.09699654579 -0.0005920759413496099 0.0003568614067093087
0.1035944745 -0.09699654579 -0.0005948282778742363 0.000346917495625974
0.1089159325 -0.09699654579 -0.000585609161754409 0.0003366419047822084
0.1142373979 -0.09699654579 -0.0005785643387363597 0.00032685770224956
0.1195588559 -0.09699654579 -0.0005720716626137773 0.0003162785916764318
0.1248803139 -0.09699654579 -0.0005652941615322188 0.00030572076249640385
0.1302017719 -0.09699654579 -0.0005583312562841619 0.0002961741705447133
0.1355232298 -0.09699654579 -0.0005556931195810311 0.00029128247121293246
0.1408446878 -0.09699654579 -0.0005549259949346717 0.0002893565940990142
0.1461661458 -0.09699654579 -0.0005536640702653279 0.00028699392460361647
0.1514876038 -0.09699654579 -0.000550846257599443 0.0002848292576253342
0.1568090618 -0.09699654579 -0.0005486581681196118 0.00028270705648327795
0.1621305197 -0.09699654579 -0.0005465295382579206 0.00027965188068661013
0.1674519777 -0.09699654579 -0.0005642752240389254 0.0002442958080646986
0.1727734357 -0.09699654579 -0.0005886042667204775 0.00019829226244399205
0.1780948937 -0.09699654579 -0.0006154814191604151 0.00015084798874231582
0.1834163517 -0.09699654579 -0.0006413553739626714 0.00010357715932686439
0.1887378097 -0.09699654579 -0.0006625960146556295 5.964772118500063e-05
0.1940592676 -0.09699654579 -0.0006834388308940111 1.5718302826746526e-05
0.1993807256 -0.09699654579 -0.0006371065941120029 -6.216879400127467e-05
0.2047021836 -0.09699654579 -0.0005721527135215569 -0.000150088787594301
0.2100236416 -0.09699654579 -0.0005087004534448881 -0.00022878215519711755
0.2153450996 -0.09699654579 -0.0004455490225139243 -0.00030681495968493827
0.2206665576 -0.09699654579 -0.0003825902175051384 -0.0003848344379146906
0.2259880155 -0.09699654579 -0.0003191759235027933 -0.00046299496012109677
0.2313094735 -0.09699654579 -0.0001880385797336272 -0.0004624434971418905
0.2366309315 -0.09699654579 -3.9402483281527014e-05 -0.0004435573340762125
0.2419523895 -0.09699654579 0.00010894884084937025 -0.0004246421115621355
0.2472738475 -0.09699654579 0.00025761565627244057 -0.00040571821546912627
0.2525953054 -0.09699654579 0.00039816224861068616 -0.00038575060277943994
0.2579167783 -0.09699654579 0.0005327869547171759 -0.0003659469899945428
0.2632382214 -0.09699654579 0.0006095180008916893 -0.0002463684655431557
0.2685596943 -0.09699654579 0.0006747671810712007 -0.00010494296195221476
0.2738811374 -0.09699654579 0.0007377186235125828 3.0468878524976572e-05
0.2792026103 -0.09699654579 0.0007975706730479792 0.0001590017605616917
0.2845240533 -0.09699654579 0.0008577960306374027 0.0002887493486814073
0.2898455262 -0.09699654579 0.0009190998719963603 0.0004219693733540161
0.2951669693 -0.09699654579 0.000851403010659513 0.0005330436386659671
0.3004884422 -0.09699654579 0.0007743119254812262 0.000636358470100085
0.3058098853 -0.09699654579 0.0006971218735340544 0.0007400124989233244
0.3111313581 -0.09699654579 0.0006200297282437493 0.0008436320117145775
0.3164528012 -0.09699654579 0.0005461686620780086 0.0009437239267179391
0.3217742741 -0.09699654579 0.00047457795505070937 0.0010325847235974077
0.3270957172 -0.09699654579 0.00035890695456277006 0.0010252773534337254
0.3324171901 -0.09699654579 0.00024439963711531533 0.0010179391680477088
0.3377386332 -0.09699654579 0.00013356904648474977 0.0010102864026326022
0.343060106 -0.09699654579 2.6708539896573763e-05 0.0010028760882449948
0.3483815491 -0.09699654579 -8.058432094557498e-05 0.0009960235021074999
0.353703022 -0.09699654579 -0.00017186475455720774 0.0009616885889688649
0.3590244651 -0.09699654579 -0.0002275225192713091 0.0008758734028122055
0.364345938 -0.09699654579 -0.0002804379641789361 0.0007952938158797269
0.369667381 -0.09699654579 -0.0003339529096761834 0.000715161620951047
0.3749888539 -0.09699654579 -0.0003886623109488236 0.0006349445416911522
0.380310297 -0.09699654579 -0.00043909059154410764 0.0005584204995205344
0.3856317699 -0.09699654579 -0.00042340150060314754 0.0004626228051325959
0.390953213 -0.09699654579 -0.0003885400810178272 0.0003593513766156564
0.3962746859 -0.09699654579 -0.00035379347085244875 0.0002507087077917652
0.4015961289 -0.09699654579 -0.0003192778711005149 0.00015100495328703947
0.4069176018 -0.09699654579 -0.00028699875944207553 5.468975695567125e-05
0.4122390449 -0.09699654579 -0.00022212144700921104 -1.989820102523689e-05
0.4175605178 -0.09699654579 -0.00011051237285697303 -6.547028467118412e-05
0.4228819609 -0.09699654579 -9.484732607076265e-06 -0.00010583677480718431
0.4282034338 -0.09699654579 8.847901376787771e-05 -0.0001464283912646527
0.4335248768 -0.09699654579 0.0001873553286952833 -0.00018652431278165122
0.4388463497 -0.09699654579 0.0002885025766058797 -0.00020415525730233314
0.4441677928 -0.09699654579 0.0003804752967907434 -0.00016716896596786023
0.4494892657 -0.09699654579 0.00047148314625822127 -0.0001312384186887497
0.4548107088 -0.09699654579 0.0005619404919333349 -9.522881272227012e-05
0.4601321816 -0.09699654579 0.0006496732487348871 -6.0245425210569334e-05
0.4654536247 -0.09699654579 0.0007114986255587094 -1.5274913255079917e-05
0.4707750976 -0.09699654579 0.0007439892386550316 5.15488979347976e-05
0.4760965407 -0.09699654579 0.0007778208953161937 0.00012275532566327516
0.4814180136 -0.09699654579 0.0008101133961462992 0.00018961126525235498
0.4867394567 -0.09699654579 0.0008420048661646815 0.0002525359997304762
0.4920609295 -0.09699654579 0.0008337538059352226 0.0003135873226905788
0.4973823726 -0.09699654579 0.0008147477417493767 0.00037410703158060016
0.5027038455 -0.09699654579 0.0007980048678093544 0.00043068951360136537
0.5080252886 -0.09699654579 0.000780877410496691 0.0004889516168795968
0.5133467317 -0.09699654579 0.0007489612171344453 0.0005336165135995945
0.5186682343 -0.09699654579 0.0007023738115106128 0.0005618526050254466
0.5239896774 -0.09699654579 0.0006621902437011461 0.0005878037842504602
0.5293111205 -0.09699654579 0.0006189458854008847 0.0006149725911635004
0.5346325636 -0.09699654579 0.0005709698227391039 0.0006278782729538548
0.5399540663 -0.09699654579 0.000525378469860053 0.0006222393473474642
0.5452755094 -0.09699654579 0.0004831732535262697 0.0006171574389821208
0.5505969524 -0.09699654579 0.0004372985716931987 0.0006114206632672414
0.5559183955 -0.09699654579 0.00039899820113182866 0.000587963125464639
0.5612398982 -0.09699654579 0.0003695736829030392 0.0005611701974039439
0.5665613413 -0.09699654579 0.0003394477865544141 0.0005341260782160593
0.5718827844 -0.09699654579 0.00031095472864498615 0.0004988969372281563
0.5772042274 -0.09699654579 0.00029760865335799465 0.0004583335213372253
0.5825257301 -0.09699654579 0.00028411432683621345 0.00041765795823077553
0.5878471732 -0.09699654579 0.00027334586147490387 0.00037153418674491643
0.5931686163 -0.09699654579 0.0002760548202004701 0.00032360225887924837
0.5984900594 -0.09699654579 0.0002770363344659007 0.00027304433168845975
0.6038115621 -0.09699654579 0.00028859703911844565 0.00022222382217235216
0.6091330051 -0.09699654579 0.00030485596659930904 0.0001684325389789993
0.6144544482 -0.09699654579 0.0003255570265897987 0.00011763874968258682
0.6197758913 -0.09699654579 0.0003568349235294653 6.722512996700262e-05
0.625097394 -0.09699654579 0.00038893910576377695 1.79648000142003e-05
0.6304188371 -0.09699654579 0.0004316808429866845 -2.7919795548355923e-05
0.6357402802 -0.09699654579 0.00047748707896366223 -7.394992298647353e-05
0.6410617828 -0.09699654579 0.0005280902881827557 -0.00011372695103050896
0.6463832259 -0.09699654579 0.0005824317480347819 -0.00015088635867821626
0.651704669 -0.09699654579 0.0006388752701865469 -0.00018447201980556691
0.6570261121 -0.09699654579 0.0006986172720116987 -0.0002109030082647014
0.6623476148 -0.09699654579 0.0007603711526044996 -0.00023476468475955482
0.6676690578 -0.09699654579 0.00082453912660073 -0.0002556848093638848
0.6729905009 -0.09699654579 0.0008917722890617272 -0.00027231420137128283
0.678311944 -0.09699654579 0.0009600478232938369 -0.0002857837995980737
0.6836334467 -0.09699654579 0.001028745230237881 -0.0002958336909454211
0.6889548898 -0.09699654579 0.0010983075347947057 -0.00030264276820060864
0.6942763329 -0.09699654579 0.0011702516181301386 -0.00030685368189312513
0.6995977759 -0.09699654579 0.0012436055865731944 -0.0003085462866004677
0.7049192786 -0.09699654579 0.001318929601846933 -0.00030632280638369613
0.7102407217 -0.09699654579 0.001397133698938584 -0.00030083193361529883
0.7155621648 -0.09699654579 0.001478775041779823 -0.00028923915394580055
0.7208836079 -0.09699654579 0.0015636354134529133 -0.0002735059260282736
0.7262051105 -0.09699654579 0.0016517948658942424 -0.00025179389858262817
0.7315265536 -0.09699654579 0.0017428788296974173 -0.00022244081723095017
0.7368479967 -0.09699654579 0.0018326132218554566 -0.0001885117671883269
0.7421694398 -0.09699654579 0.0019242075532371894 -0.000141515358098561
0.7474909425 -0.09699654579 0.0020169941508962823 -8.62614006748389e-05
0.7528123856 -0.09699654579 0.0021079107061665195 -1.5489649514010908e-05
0.7581338286 -0.09699654579 0.0021945264820672533 6.679959283451928e-05
-0.3008363545 -0.09367749095 -0.0016605006277298534 0.000985600999462807
-0.2955148816 -0.09367749095 -0.001678624689776659 0.0009589485761456204
-0.2901934385 -0.09367749095 -0.0016933586832141706 0.0009235539420381539
-0.2848719656 -0.09367749095 -0.001686650225801574 0.0009086815517117383
-0.2795505226 -0.09367749095 -0.0016904958860806923 0.0008947468914660827
-0.2742290497 -0.09367749095 -0.001683822244268991 0.0008620513509620284
-0.2689076066 -0.09367749095 -0.0016706080828558156 0.0008331944299317019
-0.2635861337 -0.09367749095 -0.0016310675667040764 0.0007982758040515011
-0.2582646906 -0.09367749095 -0.001600149850625368 0.0007677767575541952
-0.2529432178 -0.09367749095 -0.0015893579084978104 0.0007329511400860844