VARIABLES = X,Y,phix,phiy
ZONE I=200,J=200,F=POINT 
-0.3008363545 -0.1003156006 -0.0025702880930993555 0.001298252011702987
-0.2955148816 -0.1003156006 -0.0026061772856006914 0.0013104555954439965
-0.2901934385 -0.1003156006 -0.002642272034851894 0.0013174305987026572
-0.2848719656 -0.1003156006 -0.0026800192511894547 0.0013244468321235697
-0.2795505226 -0.1003156006 -0.0027205895632106836 0.0013294926188470663
-0.2742290497 -0.1003156006 -0.002763558185222899 0.001331124924360875
-0.2689076066 -0.1003156006 -0.0028090790273171485 0.0013329545563566458
-0.2635861337 -0.1003156006 -0.0028503162647841892 0.0013311794964940874
-0.2582646906 -0.1003156006 -0.0028938247837851446 0.0013250299661620355
-0.2529432178 -0.1003156006 -0.002938560568589477 0.0013166421992513815
-0.2476217598 -0.1003156006 -0.0029855833660049655 0.0013073642762634595
-0.2423003018 -0.1003156006 -0.0030279492057380514 0.0012939588384353502
-0.2369788438 -0.1003156006 -0.003068616369997981 0.0012762231015070453
-0.2316573858 -0.1003156006 -0.00311120455555863 0.0012564239161646064
-0.2263359278 -0.1003156006 -0.0031525044600256734 0.0012344542748596206
-0.2210144699 -0.1003156006 -0.003188377051298694 0.0012077802344513614
-0.2156930119 -0.1003156006 -0.0032249043180283088 0.0011794239437155213
-0.2103715539 -0.1003156006 -0.0032610356056604973 0.0011483718295334758
-0.2050500959 -0.1003156006 -0.003289051876667612 0.0011170790445318654
-0.1997286379 -0.1003156006 -0.0033171737284449776 0.0010836987958423448
-0.19440718 -0.1003156006 -0.0033449585012268576 0.0010481312423631529
-0.189085722 -0.1003156006 -0.0033659539945371255 0.001015229921163547
-0.183764264 -0.1003156006 -0.0033849460231150223 0.000980483149274132
-0.178442806 -0.1003156006 -0.0034043833082996224 0.0009456449071481
-0.173121348 -0.1003156006 -0.003418810375894221 0.0009117596068076564
-0.16779989 -0.1003156006 -0.0034326267090102336 0.0008783405362775117
-0.1624784321 -0.1003156006 -0.003445648779351656 0.0008438219850462486
-0.1571569741 -0.1003156006 -0.0034556783665665868 0.0008117925611962853
-0.1518355161 -0.1003156006 -0.003463446843062756 0.0007800132174970454
-0.1465140581 -0.1003156006 -0.0034709028233503164 0.0007480885994265515
-0.1411926001 -0.1003156006 -0.003477633866997278 0.0007170675086303861
-0.1358711421 -0.1003156006 -0.003481386345771923 0.000688017910075604
-0.1305496842 -0.1003156006 -0.0034851393543682612 0.0006589682301990281
-0.1252282262 -0.1003156006 -0.003488501904334085 0.0006294115002261404
-0.1199067682 -0.1003156006 -0.0034898611883529378 0.0006027247530074158
-0.1145853102 -0.1003156006 -0.0034905367216456645 0.0005764964931996386
-0.1092638522 -0.1003156006 -0.0034909360330457034 0.0005500107626616818
-0.1039423943 -0.1003156006 -0.003491434342706913 0.0005239632355972274
-0.09862093627 -0.1003156006 -0.003489953012140887 0.0005005193181334875
-0.09329947084 -0.1003156006 -0.003488130804469761 0.0004769403663111445
-0.08797801286 -0.1003156006 -0.0034863080718355753 0.00045336141408532283
-0.08265655488 -0.1003156006 -0.0034845558580516313 0.0004299359563433782
-0.0773350969 -0.1003156006 -0.003481239560738863 0.0004087928816084016
-0.07201363891 -0.1003156006 -0.0034779140069786194 0.0003877233174901798
-0.06669218093 -0.1003156006 -0.003474589504744649 0.00036665378863990386
-0.06137072667 -0.1003156006 -0.0034710294832339754 0.000345447378121219
-0.05604926869 -0.1003156006 -0.0034667677527016006 0.00032621390276199846
-0.05072781071 -0.1003156006 -0.0034622307901047552 0.0003073417561717957
-0.045406349 -0.1003156006 -0.0034577760367948645 0.0002885312704228917
-0.04008489102 -0.1003156006 -0.0034531288492907226 0.00026966619329007606
-0.03476343304 -0.1003156006 -0.003448376433780419 0.00025147891544143974
-0.02944197692 -0.1003156006 -0.003443042659077317 0.00023468417324110192
-0.02412051894 -0.1003156006 -0.0034376600559190493 0.00021786960758477826
-0.01879905909 -0.1003156006 -0.0034322104572222225 0.00020102013195652692
-0.01347760204 -0.1003156006 -0.0034268304618570392 0.00018421532821796775
-0.00815614406 -0.1003156006 -0.0034212527010069865 0.000168458871542829
-0.00283468538 -0.1003156006 -0.0034153523082616193 0.00015349349682982472
0.002486772602 -0.1003156006 -0.003409313881753127 0.00013849694975893645
0.007808230817 -0.1003156006 -0.0034032738636368175 0.00012349420763259998
0.0131296888 -0.1003156006 -0.0033973500366278548 0.00010852375046578135
0.01845114678 -0.1003156006 -0.0033912888763924917 9.448077309746661e-05
0.02377260476 -0.1003156006 -0.003384960798784382 8.113307060369633e-05
0.02909406275 -0.1003156006 -0.00337854928772725 6.775256991245514e-05
0.03441552073 -0.1003156006 -0.0033721395737822046 5.437207887820918e-05
0.03973697871 -0.1003156006 -0.0033658008996602963 4.1018909013970466e-05
0.04505843669 -0.1003156006 -0.0033594551523106067 2.8134297453493794e-05
0.05037989467 -0.1003156006 -0.0033528355938274154 1.611563717302271e-05
0.05570135266 -0.1003156006 -0.0033461509736464074 4.100872566423747e-06
0.06102281436 -0.1003156006 -0.0033394532076895704 -7.937532503464407e-06
0.06634426862 -0.1003156006 -0.0033328102227941077 -1.994510256103361e-05
0.0716657266 -0.1003156006 -0.0033262032146573976 -3.1956974273565595e-05
0.07698718458 -0.1003156006 -0.0033193708559630945 -4.289498348090846e-05
0.08230864257 -0.1003156006 -0.003312455777027274 -5.37445538302311e-05
0.08763010055 -0.1003156006 -0.003305504063397014 -6.458101482026303e-05
0.09295155853 -0.1003156006 -0.0032985904510215627 -7.541006743418474e-05
0.09827301651 -0.1003156006 -0.0032916999261319714 -8.62500217059863e-05
0.1035944745 -0.1003156006 -0.0032847595900813366 -9.6771858241072e-05
0.1089159325 -0.1003156006 -0.003277561972590807 -0.00010659228102011855
0.1142373979 -0.1003156006 -0.0032703638263047274 -0.00011641263326493162
0.1195588559 -0.1003156006 -0.0032632428534373295 -0.0001261891800036181
0.1248803139 -0.1003156006 -0.0032560996744607296 -0.00013596606556822712
0.1302017719 -0.1003156006 -0.0032489316684933666 -0.00014577517177829396
0.1355232298 -0.1003156006 -0.0032416324210749908 -0.0001550717157754741
0.1408446878 -0.1003156006 -0.0032341923110493233 -0.00016393291074154903
0.1461661458 -0.1003156006 -0.0032267949551271014 -0.00017279764575236985
0.1514876038 -0.1003156006 -0.003219397409332564 -0.00018166246644752578
0.1568090618 -0.1003156006 -0.00321199994589112 -0.00019052726166197154
0.1621305197 -0.1003156006 -0.0032046092319979636 -0.00019939450064320775
0.1674519777 -0.1003156006 -0.0031970695701814887 -0.00020764772691949927
0.1727734357 -0.1003156006 -0.0031893717998648895 -0.0002157048687599742
0.1780948937 -0.1003156006 -0.00318167351113945 -0.00022376207066550615
0.1834163517 -0.1003156006 -0.003173976795381014 -0.0002318192913065568
0.1887378097 -0.1003156006 -0.0031663131398243947 -0.00023983900036700769
0.1940592676 -0.1003156006 -0.003158683785421084 -0.00024786211959658226
0.1993807256 -0.1003156006 -0.003150809937512568 -0.0002553081327036247
0.2047021836 -0.1003156006 -0.003142813718300745 -0.0002625480454495871
0.2100236416 -0.1003156006 -0.003134820856395592 -0.0002697786174909557
0.2153450996 -0.1003156006 -0.003126910128663087 -0.00027694673445247304
0.2206665576 -0.1003156006 -0.0031189538395931596 -0.00028416794679350974
0.2259880155 -0.1003156006 -0.0031109968146687847 -0.0002913886580775543
0.2313094735 -0.1003156006 -0.003102823029474432 -0.0002980807924787722
0.2366309315 -0.1003156006 -0.003094603804323719 -0.0003045521083838555
0.2419523895 -0.1003156006 -0.003086389937255555 -0.00031103610708994086
0.2472738475 -0.1003156006 -0.0030781895279082257 -0.00031752509035300295
0.2525953054 -0.1003156006 -0.0030699801899928903 -0.00032401357547659943
0.2579167783 -0.1003156006 -0.0030618141784861533 -0.0003304605903416149
0.2632382214 -0.1003156006 -0.0030533881672970805 -0.00033647669104757967
0.2685596943 -0.1003156006 -0.0030448718303374383 -0.00034234477949641475
0.2738811374 -0.1003156006 -0.003036322962857347 -0.0003482487295452816
0.2792026103 -0.1003156006 -0.0030278026367281403 -0.0003541187583346171
0.2845240533 -0.1003156006 -0.0030193083362731517 -0.000359973248550111
0.2898455262 -0.1003156006 -0.003010814936060561 -0.00036582794554844693
0.2951669693 -0.1003156006 -0.0030018737866410487 -0.00037122778130003743
0.3004884422 -0.1003156006 -0.0029928562794199103 -0.000376510012567806
0.3058098853 -0.1003156006 -0.0029838827566629382 -0.00038175458088711954
0.3111313581 -0.1003156006 -0.002974906665205122 -0.0003869991485159203
0.3164528012 -0.1003156006 -0.002965930870963428 -0.00039224357843631785
0.3217742741 -0.1003156006 -0.0029569949738786996 -0.00039746595841097494
0.3270957172 -0.1003156006 -0.0029474581761470115 -0.00040203909672059115
0.3324171901 -0.1003156006 -0.002937903799293058 -0.0004066279595926674
0.3377386332 -0.1003156006 -0.0029283491102932227 -0.00041121708490576234
0.343060106 -0.1003156006 -0.0029187960868812574 -0.0004158003118803698
0.3483815491 -0.1003156006 -0.00290933263194631 -0.00042030265454330086
0.353703022 -0.1003156006 -0.002899689842222645 -0.00042461496150711505
0.3590244651 -0.1003156006 -0.0028896083764342437 -0.00042843839240085205
0.364345938 -0.1003156006 -0.002879528303265808 -0.0004322591545898543
0.369667381 -0.1003156006 -0.0028695333136569755 -0.00043599613204605293
0.3749888539 -0.1003156006 -0.0028595233586196514 -0.00043974442724167216
0.380310297 -0.1003156006 -0.002849489414076599 -0.0004435239798839758
0.3856317699 -0.1003156006 -0.0028389846736709343 -0.00044683791223206675
0.390953213 -0.1003156006 -0.0028283892641848946 -0.00044989094655914974
0.3962746859 -0.1003156006 -0.002817792334614346 -0.0004529514625795378
0.4015961289 -0.1003156006 -0.002807215008705749 -0.000456022334343334
0.4069176018 -0.1003156006 -0.002796639456771839 -0.00045908130135180534
0.4122390449 -0.1003156006 -0.0027858524307351872 -0.00046178154199156825
0.4175605178 -0.1003156006 -0.0027745607326617266 -0.00046407243317028783
0.4228819609 -0.1003156006 -0.002763219043886994 -0.00046642816155230833
0.4282034338 -0.1003156006 -0.0027518908359486422 -0.000468761071490374
0.4335248768 -0.1003156006 -0.002740664242491361 -0.0004709865470891177
0.4388463497 -0.1003156006 -0.0027292028469731457 -0.0004730024892206219
0.4441677928 -0.1003156006 -0.0027170585400199607 -0.0004744006318920872
0.4494892657 -0.1003156006 -0.0027049541720892334 -0.00047575451937530974
0.4548107088 -0.1003156006 -0.0026929500927784086 -0.00047701015995192555
0.4601321816 -0.1003156006 -0.0026808687700550934 -0.0004783465659320088
0.4654536247 -0.1003156006 -0.002668431248460606 -0.00047931727469943
0.4707750976 -0.1003156006 -0.0026554804954542818 -0.0004796091929389018
0.4760965407 -0.1003156006 -0.0026426255828499038 -0.000479820978015641
0.4814180136 -0.1003156006 -0.0026297710754900833 -0.00048003286259918276
0.4867394567 -0.1003156006 -0.0026169225910063387 -0.0004802388898373745
0.4920609295 -0.1003156006 -0.002603370547609081 -0.00047956160967247357
0.4973823726 -0.1003156006 -0.002589651177174284 -0.0004786037515258149
0.5027038455 -0.1003156006 -0.0025759312785968986 -0.0004776484210562619
0.5080252886 -0.1003156006 -0.0025622194530222327 -0.00047668432892991125
0.5133467317 -0.1003156006 -0.0025483396591288827 -0.00047497388589934743
0.5186682343 -0.1003156006 -0.002533767788163637 -0.000472637067223999
0.5239896774 -0.1003156006 -0.002519162926172421 -0.0004703294627941544
0.5293111205 -0.1003156006 -0.00250465886160906 -0.00046795761659854606
0.5346325636 -0.1003156006 -0.0024900015259780818 -0.00046483271392546035
0.5399540663 -0.1003156006 -0.002474688917710746 -0.0004609370449430272
0.5452755094 -0.1003156006 -0.002459232997654539 -0.00045710946369053836
0.5505969524 -0.1003156006 -0.0024440490522958 -0.00045316562836097935
0.5559183955 -0.1003156006 -0.0024284555077788888 -0.000447928913881264
0.5612398982 -0.1003156006 -0.002412210769146198 -0.0004423839351252192
0.5665613413 -0.1003156006 -0.0023960616246817153 -0.00043681896034178386
0.5718827844 -0.1003156006 -0.0023800323632997607 -0.0004304239463460714
0.5772042274 -0.1003156006 -0.0023631859544110193 -0.00042299363986904087
0.5825257301 -0.1003156006 -0.0023462705935909326 -0.00041557724252355287
0.5878471732 -0.1003156006 -0.002329483485105755 -0.0004072416313286664
0.5931686163 -0.1003156006 -0.0023121013170054883 -0.0003977823815689092
0.5984900594 -0.1003156006 -0.0022946327122641773 -0.0003884673302980973
0.6038115621 -0.1003156006 -0.0022767546250871446 -0.000377479126042456
0.6091330051 -0.1003156006 -0.00225898030754502 -0.0003661302481849482
0.6144544482 -0.1003156006 -0.002240637948772392 -0.0003536326306697036
0.6197758913 -0.1003156006 -0.002222512742620924 -0.0003399999182608726
0.625097394 -0.1003156006 -0.002204328120216819 -0.0003255203957754518
0.6304188371 -0.1003156006 -0.002185901619884693 -0.0003093165935349333
0.6357402802 -0.1003156006 -0.002168163957767527 -0.0002923098710793789
0.6410617828 -0.1003156006 -0.002150143670874267 -0.00027386519151052205
0.6463832259 -0.1003156006 -0.0021323847491098013 -0.0002541732679698079
0.651704669 -0.1003156006 -0.002114687086356968 -0.00023351952061327833
0.6570261121 -0.1003156006 -0.0020981405218430758 -0.00021095334239376576
0.6623476148 -0.1003156006 -0.002081867546824143 -0.0001869879441398798
0.6676690578 -0.1003156006 -0.0020660639223538516 -0.00016162520761278093
0.6729905009 -0.1003156006 -0.002051668972001713 -0.00013407534844664788
0.678311944 -0.1003156006 -0.002038429064904873 -0.00010545537926892247
0.6836334467 -0.1003156006 -0.0020260578676967074 -7.527709294114433e-05
0.6889548898 -0.1003156006 -0.0020151333482775094 -4.3250223160583194e-05
0.6942763329 -0.1003156006 -0.002006236478495486 -9.660970414651807e-06
0.6995977759 -0.1003156006 -0.001998867698093665 2.5131643166793248e-05
0.7049192786 -0.1003156006 -0.0019935500575465432 6.118921064134952e-05
0.7102407217 -0.1003156006 -0.0019905321575058635 9.840143009964485e-05
0.7155621648 -0.1003156006 -0.001990506122637355 0.00013670117994106571
0.7208836079 -0.1003156006 -0.0019931581683906136 0.00017534014221512933
0.7262051105 -0.1003156006 -0.0019984395213907165 0.00021422892426638544
0.7315265536 -0.1003156006 -0.0020068756283310196 0.00025340195583207955
0.7368479967 -0.1003156006 -0.0020194376088178167 0.000291883526147074
0.7421694398 -0.1003156006 -0.0020349878672416394 0.00033001003950328963
0.7474909425 -0.1003156006 -0.002052625702619313 0.00036575756364343583
0.7528123856 -0.1003156006 -0.0020738262773853126 0.0004004348552829679
0.7581338286 -0.1003156006 -0.002097954472035209 0.000432725589546396
-0.3008363545 -0.09699654579 -0.0025618412599474833 0.001319278745203986
-0.2955148816 -0.09699654579 -0.0025992186153760504 0.001332450339155139
-0.2901934385 -0.09699654579 -0.0026374694368089986 0.0013435515096767647
-0.2848719656 -0.09699654579 -0.0026762261629416136 0.0013499516064523472
-0.2795505226 -0.09699654579 -0.002717138700016273 0.0013554547431469893
-0.2742290497 -0.09699654579 -0.0027606043318670445 0.0013590085845979559
-0.2689076066 -0.09699654579 -0.002807772518022817 0.001359518414343949
-0.2635861337 -0.09699654579 -0.0028534344280382704 0.0013588424047930152
-0.2582646906 -0.09699654579 -0.002897516637897565 0.0013538794791053002
-0.2529432178 -0.09699654579 -0.002943749804453346 0.0013454970763470077
-0.2476217598 -0.09699654579 -0.0029926951082336487 0.0013342946327238754
-0.2423003018 -0.09699654579 -0.003039092325971589 0.0013212618597437413
-0.2369788438 -0.09699654579 -0.0030811783009623305 0.0013032763190221832
-0.2316573858 -0.09699654579 -0.003124048650205787 0.0012818264518017703
-0.2263359278 -0.09699654579 -0.0031688087973512987 0.0012586157858700416
-0.2210144699 -0.09699654579 -0.0032059374345354947 0.0012321554349817613
-0.2156930119 -0.09699654579 -0.003242358349904668 0.0012015511046327234
-0.2103715539 -0.09699654579 -0.0032800050601581327 0.0011689192180637572
-0.2050500959 -0.09699654579 -0.003310169450138558 0.0011356185021093351
-0.1997286379 -0.09699654579 -0.003337955066669629 0.001099952785698745
-0.19440718 -0.09699654579 -0.0033659499911623415 0.0010637135487017299
-0.189085722 -0.09699654579 -0.003387440171771689 0.0010279115333254748
-0.183764264 -0.09699654579 -0.0034072395432364682 0.000992282473825328
-0.178442806 -0.09699654579 -0.0034256682412293292 0.0009555709966160611
-0.173121348 -0.09699654579 -0.0034406312257085386 0.0009210481916398704
-0.16779989 -0.09699654579 -0.003453355680487529 0.0008862318502523075
-0.1624784321 -0.09699654579 -0.003466351485227814 0.0008509558704470233
-0.1571569741 -0.09699654579 -0.003475976050425108 0.0008172371847879295
-0.1518355161 -0.09699654579 -0.0034832844928714304 0.0007848898701097261
-0.1465140581 -0.09699654579 -0.003490508660283702 0.000751921419875565
-0.1411926001 -0.09699654579 -0.0034966193588008565 0.0007202278880522004
-0.1358711421 -0.09699654579 -0.0034999066941312686 0.0006905735662003424
-0.1305496842 -0.09699654579 -0.0035028329429844813 0.0006607428589178097
-0.1252282262 -0.09699654579 -0.003505936478081173 0.0006308270018474597
-0.1199067682 -0.09699654579 -0.0035068195864630947 0.0006032867809671151
-0.1145853102 -0.09699654579 -0.0035070545950770878 0.0005767454786052196
-0.1092638522 -0.09699654579 -0.0035071837771811346 0.0005500387096647796
-0.1039423943 -0.09699654579 -0.0035070485068201757 0.0005233501544855977
-0.09862093627 -0.09699654579 -0.003505045085999885 0.0004996220378394254
-0.09329947084 -0.09699654579 -0.0035028901135818473 0.00047574858770875293
-0.08797801286 -0.09699654579 -0.003500560205687959 0.0004517537278745902
-0.08265655488 -0.09699654579 -0.003498446448469608 0.0004281028303162148
-0.0773350969 -0.09699654579 -0.00349483799573769 0.00040685557924297793
-0.07201363891 -0.09699654579 -0.0034910315844254507 0.0003855659606758437
-0.06669218093 -0.09699654579 -0.0034872399105824467 0.00036427823411229736
-0.06137072667 -0.09699654579 -0.0034833967598314635 0.00034292052093521313
-0.05604926869 -0.09699654579 -0.0034787854172660024 0.00032345875297346336
-0.05072781071 -0.09699654579 -0.0034739800551804967 0.0003045181543532547
-0.045406349 -0.09699654579 -0.0034691746511860406 0.00028557759186535286
-0.04008489102 -0.09699654579 -0.00346424803818473 0.00026658222074423926
-0.03476343304 -0.09699654579 -0.003459143539476818 0.00024824780877525624
-0.02944197692 -0.09699654579 -0.0034535078819240344 0.00023134863732034405
-0.02412051894 -0.09699654579 -0.003447910508936747 0.0002144407431528355
-0.01879905909 -0.09699654579 -0.0034422805277591825 0.0001975445297020053
-0.01347760204 -0.09699654579 -0.0034365952372797 0.00018063525254118998
-0.00815614406 -0.09699654579 -0.0034307393863249823 0.00016479428502300987
-0.00283468538 -0.09699654579 -0.0034245861711686906 0.00014975951753115697
0.002486772602 -0.09699654579 -0.003418380976117584 0.00013471955752674536
0.007808230817 -0.09699654579 -0.0034121672727905634 0.00011967014596525309
0.0131296888 -0.09699654579 -0.003405991468383393 0.00010463444806427873
0.01845114678 -0.09699654579 -0.0033997015878854077 9.054499061102692e-05
0.02377260476 -0.09699654579 -0.0033931953604463823 7.714166549614728e-05
0.02909406275 -0.09699654579 -0.003386627359288092 6.37409430366174e-05
0.03441552073 -0.09699654579 -0.0033800508614507518 5.033288789714391e-05
0.03973697871 -0.09699654579 -0.003373542634948203 3.693331683299096e-05
0.04505843669 -0.09699654579 -0.0033670058450510866 2.4020219568733672e-05
0.05037989467 -0.09699654579 -0.003360228510258047 1.1961602852186163e-05
0.05570135266 -0.09699654579 -0.003353439545991674 -7.877570894193806e-08
0.06102281436 -0.09699654579 -0.0033466077650325648 -1.2134276930236099e-05
0.06634426862 -0.09699654579 -0.003339843648907436 -2.4186651718398532e-05
0.0716657266 -0.09699654579 -0.003333077726958361 -3.6239080342742424e-05
0.07698718458 -0.09699654579 -0.003326105754220939 -4.7193735983634314e-05
0.08230864257 -0.09699654579 -0.003319062017256143 -5.807979843500409e-05
0.08763010055 -0.09699654579 -0.003312043945281214 -6.893731702984731e-05
0.09295155853 -0.09699654579 -0.003305027977366833 -7.9790992761323e-05
0.09827301651 -0.09699654579 -0.0032980069989862765 -9.066818788160182e-05
0.1035944745 -0.09699654579 -0.0032909335079561266 -0.00010120353414615545
0.1089159325 -0.09699654579 -0.0032836226715106157 -0.0001110562107182961
0.1142373979 -0.09699654579 -0.0032763589825377747 -0.00012087640591068182
0.1195588559 -0.09699654579 -0.003269121383829467 -0.00013070720510031182
0.1248803139 -0.09699654579 -0.003261885112604548 -0.00014053801363100304
0.1302017719 -0.09699654579 -0.0032546280963211553 -0.00015034752035595182
0.1355232298 -0.09699654579 -0.0032472225842338667 -0.00015964317763725232
0.1408446878 -0.09699654579 -0.003239734146572142 -0.00016853044049344783
0.1461661458 -0.09699654579 -0.003232246486000449 -0.0001774327559013337
0.1514876038 -0.09699654579 -0.003224741796075234 -0.00018633609729840618
0.1568090618 -0.09699654579 -0.003217236743362134 -0.00019523931560021663
0.1621305197 -0.09699654579 -0.0032097779003203825 -0.00020410317517409842
0.1674519777 -0.09699654579 -0.0032021444370965 -0.00021241472702201333
0.1727734357 -0.09699654579 -0.0031943935306318785 -0.0002204816192453594
0.1780948937 -0.09699654579 -0.0031866085204118036 -0.0002285746989557404
0.1834163517 -0.09699654579 -0.003178843624834072 -0.00023664430557643473
0.1887378097 -0.09699654579 -0.003171122919418749 -0.0002447112691451448
0.1940592676 -0.09699654579 -0.00316340066692049 -0.0002527783586019233
0.1993807256 -0.09699654579 -0.0031554231425550273 -0.00026023801750317316
0.2047021836 -0.09699654579 -0.003147338557586695 -0.0002675154084028709
0.2100236416 -0.09699654579 -0.003139326133245565 -0.0002747419407303486
0.2153450996 -0.09699654579 -0.003131306853503845 -0.00028198905143692206
0.2206665576 -0.09699654579 -0.0031232889883397994 -0.0002892362023301756
0.2259880155 -0.09699654579 -0.0031152801620255846 -0.0002964659388045949
0.2313094735 -0.09699654579 -0.003107082239477194 -0.00030312266803979207
0.2366309315 -0.09699654579 -0.0030987856372417647 -0.000309650002720478
0.2419523895 -0.09699654579 -0.003090488806992153 -0.0003161773166731137
0.2472738475 -0.09699654579 -0.003082191215863561 -0.0003227046824270583
0.2525953054 -0.09699654579 -0.0030739407295010362 -0.00032919120711795506
0.2579167783 -0.09699654579 -0.0030657033401503097 -0.0003356870087569985
0.2632382214 -0.09699654579 -0.003057184354711101 -0.0003417452642343239
0.2685596943 -0.09699654579 -0.0030485816318716113 -0.00034769781584759754
0.2738811374 -0.09699654579 -0.0030400140835489917 -0.0003536058835421281
0.2792026103 -0.09699654579 -0.0030314586319393527 -0.00035950917512139177
0.2845240533 -0.09699654579 -0.0030229148405670693 -0.0003653918498540781
0.2898455262 -0.09699654579 -0.00301434298240884 -0.0003713121085070149
0.2951669693 -0.09699654579 -0.0030053301239309207 -0.0003767303960299024
0.3004884422 -0.09699654579 -0.0029962747059414947 -0.00038206880647489105
0.3058098853 -0.09699654579 -0.002987213259479523 -0.0003874057558939071
0.3111313581 -0.09699654579 -0.0029781505517550272 -0.00039274274602855714
0.3164528012 -0.09699654579 -0.0029691248823918606 -0.0003980340371990769
0.3217742741 -0.09699654579 -0.0029601077788751454 -0.0004032838222228052
0.3270957172 -0.09699654579 -0.002950459980432282 -0.0004079360020738657
0.3324171901 -0.09699654579 -0.0029408099164585618 -0.0004125883813417441
0.3377386332 -0.09699654579 -0.002931205686669101 -0.00041719437379710765
0.343060106 -0.09699654579 -0.0029216275683556204 -0.00042177539491449866
0.3483815491 -0.09699654579 -0.0029120291501813925 -0.0004263831504267174
0.353703022 -0.09699654579 -0.002902234702339361 -0.00043076646032370284
0.3590244651 -0.09699654579 -0.0028920670479420842 -0.00043463810995342597
0.364345938 -0.09699654579 -0.0028819341137755533 -0.0004384864796947719
0.369667381 -0.09699654579 -0.002871817902554737 -0.00044234282241420594
0.3749888539 -0.09699654579 -0.0028616991991294283 -0.000446200288551874
0.380310297 -0.09699654579 -0.002851635595415855 -0.00044999946960752607
0.3856317699 -0.09699654579 -0.0028411058189399064 -0.0004532973185802238
0.390953213 -0.09699654579 -0.002830426676196138 -0.0004564464934000106
0.3962746859 -0.09699654579 -0.002819712079893649 -0.0004596460342713521
0.4015961289 -0.09699654579 -0.0028090554112811276 -0.00046276852855093524
0.4069176018 -0.09699654579 -0.0027984197061082547 -0.00046587186145801736
0.4122390449 -0.09699654579 -0.002787443359065655 -0.00046871049209328675
0.4175605178 -0.09699654579 -0.002775978260019713 -0.00047117914883533263
0.4228819609 -0.09699654579 -0.0027646047522581355 -0.0004735332173707782
0.4282034338 -0.09699654579 -0.0027532428125786653 -0.0004758766003273323
0.4335248768 -0.09699654579 -0.002741887924825656 -0.0004782120431227663
0.4388463497 -0.09699654579 -0.002730219753076485 -0.00048036096568918567
0.4441677928 -0.09699654579 -0.002717978796998006 -0.00048182850143911176
0.4494892657 -0.09699654579 -0.0027057580869804614 -0.00048330783926850705
0.4548107088 -0.09699654579 -0.002693532406723372 -0.000484785904866831
0.4601321816 -0.09699654579 -0.00268134602878041 -0.0004862181539877663
0.4654536247 -0.09699654579 -0.002668887148647857 -0.00048716553739639183
0.4707750976 -0.09699654579 -0.002655846640126442 -0.0004875363804885885
0.4760965407 -0.09699654579 -0.002642711951682713 -0.00048799620328656204
0.4814180136 -0.09699654579 -0.0026296736389273263 -0.0004883676746357066
0.4867394567 -0.09699654579 -0.002616710628212709 -0.0004886749432869308
0.4920609295 -0.09699654579 -0.0026029745110513276 -0.000488106095975085
0.4973823726 -0.09699654579 -0.0025890207886856208 -0.00048729811227631747
0.5027038455 -0.09699654579 -0.002575216884660287 -0.00048636034948078277
0.5080252886 -0.09699654579 -0.002561334553999511 -0.00048549645319280607
0.5133467317 -0.09699654579 -0.002547001984731477 -0.0004840479079181587
0.5186682343 -0.09699654579 -0.0025321901097442377 -0.00048184012318242697
0.5239896774 -0.09699654579 -0.002517571702559167 -0.0004795120393189863
0.5293111205 -0.09699654579 -0.0025028714052115716 -0.0004772287080052173
0.5346325636 -0.09699654579 -0.0024876416556892304 -0.0004744065668037216
0.5399540663 -0.09699654579 -0.002472088305003368 -0.0004706043696223873
0.5452755094 -0.09699654579 -0.0024566259329915022 -0.0004667637329749907
0.5505969524 -0.09699654579 -0.0024410711539737374 -0.0004629607175416114
0.5559183955 -0.09699654579 -0.0024247674178617742 -0.00045801114315678794
0.5612398982 -0.09699654579 -0.0024085203719946477 -0.00045249179945230456
0.5665613413 -0.09699654579 -0.0023922825631256766 -0.00044696752696824534
0.5718827844 -0.09699654579 -0.002375369025510242 -0.00044090038110278
0.5772042274 -0.09699654579 -0.0023583582901884367 -0.0004335596821579464
0.5825257301 -0.09699654579 -0.002341343789171255 -0.00042621819370414996
0.5878471732 -0.09699654579 -0.002323697179115676 -0.0004182476558922507
0.5931686163 -0.09699654579 -0.002305999286171666 -0.00040893099639367
0.5984900594 -0.09699654579 -0.0022880108310047256 -0.0003996008048543318
0.6038115621 -0.09699654579 -0.002269809157539077 -0.00038884417567361493
0.6091330051 -0.09699654579 -0.002251186182379077 -0.000377264655492775
0.6144544482 -0.09699654579 -0.0022327701153653334 -0.0003651088763071777
0.6197758913 -0.09699654579 -0.0022138675172590164 -0.00035115019462599896
0.625097394 -0.09699654579 -0.0021951182577538138 -0.00033677889399778615
0.6304188371 -0.09699654579 -0.0021761889410924387 -0.0003206120554226305
0.6357402802 -0.09699654579 -0.0021568361236066406 -0.00030373486582773953
0.6410617828 -0.09699654579 -0.0021383121191367975 -0.0002854863463384749
0.6463832259 -0.09699654579 -0.0021195931439621585 -0.0002656080735257633
0.651704669 -0.09699654579 -0.002101130260289172 -0.0002444764149312275
0.6570261121 -0.09699654579 -0.0020836487552796843 -0.0002212997545146028
0.6623476148 -0.09699654579 -0.0020666421397089723 -0.00019695335044691737
0.6676690578 -0.09699654579 -0.0020499240382577995 -0.00017102528823523854
0.6729905009 -0.09699654579 -0.0020343578814621325 -0.00014328319091488017
0.678311944 -0.09699654579 -0.002019458100142132 -0.00011378581259083179
0.6836334467 -0.09699654579 -0.002005817141583407 -8.300225324265694e-05
0.6889548898 -0.09699654579 -0.001994070402203347 -5.0228612657650294e-05
0.6942763329 -0.09699654579 -0.001984066662593864 -1.568143902031424e-05
0.6995977759 -0.09699654579 -0.0019756174796700544 2.0682221224642178e-05
0.7049192786 -0.09699654579 -0.0019694716686201106 5.812497892541688e-05
0.7102407217 -0.09699654579 -0.0019658995530126683 9.691121964020112e-05
0.7155621648 -0.09699654579 -0.0019656152882030647 0.00013686565569433657
0.7208836079 -0.09699654579 -0.0019680613412274154 0.00017793977593505723
0.7262051105 -0.09699654579 -0.001973721162700625 0.00021929795055484848
0.7315265536 -0.09699654579 -0.001982597261727604 0.00025995511106887933
0.7368479967 -0.09699654579 -0.001994761029418192 0.00030104070160798994
0.7421694398 -0.09699654579 -0.0020108455322529997 0.00034037817064723984
0.7474909425 -0.09699654579 -0.0020300491685201682 0.0003790628858434862
0.7528123856 -0.09699654579 -0.0020527407436819307 0.000414930250246776
0.7581338286 -0.09699654579 -0.0020781509593135183 0.00044876653155334194
-0.3008363545 -0.09367749095 -0.0025526119128201643 0.0013405328733963311
-0.2955148816 -0.09367749095 -0.002590791527312227 0.0013554978663251876
-0.2901934385 -0.09367749095 -0.0026325568572398684 0.0013677494439457364
-0.2848719656 -0.09367749095 -0.0026719711508871495 0.0013772339076989668
-0.2795505226 -0.09367749095 -0.00271343715019894 0.0013828189600614887
-0.2742290497 -0.09367749095 -0.00275834454252486 0.0013863411093457962
-0.2689076066 -0.09367749095 -0.0028051131105141596 0.0013883221330653922
-0.2635861337 -0.09367749095 -0.0028562317680676415 0.0013872311836649138