VARIABLES = X,Y,phix,phiy
ZONE I=200,J=200,F=POINT 
-0.3008363545 -0.1003156006 -5.9393355944213786e-05 4.869791771962669e-05
-0.2955148816 -0.1003156006 -2.5533130341216374e-05 8.940262929811828e-05
-0.2901934385 -0.1003156006 -2.8115359362052727e-05 0.00011174814677480196
-0.2848719656 -0.1003156006 -2.6524135709545498e-05 0.00013323412899455015
-0.2795505226 -0.1003156006 -2.1910679568106735e-05 0.00015391178902068934
-0.2742290497 -0.1003156006 -1.2581021128918888e-05 0.0001683430306938025
-0.2689076066 -0.1003156006 -7.79054478463274e-06 0.00017807160670488828
-0.2635861337 -0.1003156006 -9.798652897426749e-05 0.00022951647638863747
-0.2582646906 -0.1003156006 -0.00022774958764551706 0.000301725591677571
-0.2529432178 -0.1003156006 -0.0003799470600969344 0.0003851330332869092
-0.2476217598 -0.1003156006 -0.0005549872139471284 0.00047211934285080266
-0.2423003018 -0.1003156006 -0.0006192093801265134 0.0004651084984688578
-0.2369788438 -0.1003156006 -0.0006057399845263407 0.0003946961968606712
-0.2316573858 -0.1003156006 -0.0005735686495997551 0.00030025036703877227
-0.2263359278 -0.1003156006 -0.0005582823824971554 0.00019454374283187523
-0.2210144699 -0.1003156006 -0.0006154427266602022 0.00014123430154667138
-0.2156930119 -0.1003156006 -0.0006637622022813719 8.215096343825229e-05
-0.2103715539 -0.1003156006 -0.0007094873220332786 2.130067605765434e-05
-0.2050500959 -0.1003156006 -0.0007261559814016113 -6.555556950529074e-07
-0.1997286379 -0.1003156006 -0.0007361666350672144 -1.9233285746918952e-05
-0.19440718 -0.1003156006 -0.0007439796537663197 -2.8730763853239346e-05
-0.189085722 -0.1003156006 -0.0006871020402370613 -3.977493664370034e-05
-0.183764264 -0.1003156006 -0.0006179857442079556 -4.6664842461588025e-05
-0.178442806 -0.1003156006 -0.0005468296503726608 -6.833279707128239e-05
-0.173121348 -0.1003156006 -0.0005443286494689762 -5.252003718547266e-05
-0.16779989 -0.1003156006 -0.0005549193868572299 -4.0678758480007065e-05
-0.1624784321 -0.1003156006 -0.0005695606920014787 -2.1440099276846633e-06
-0.1571569741 -0.1003156006 -0.0005885850356606598 2.658346266780686e-05
-0.1518355161 -0.1003156006 -0.0006113665831225477 4.872701543739827e-05
-0.1465140581 -0.1003156006 -0.0006349668510545933 7.133206046819263e-05
-0.1411926001 -0.1003156006 -0.0006463859568031305 7.42396711491469e-05
-0.1358711421 -0.1003156006 -0.0006302741440772571 3.870631130694571e-05
-0.1305496842 -0.1003156006 -0.000614763108195096 3.153923338857139e-06
-0.1252282262 -0.1003156006 -0.0005981799380280002 -3.1355270344354935e-05
-0.1199067682 -0.1003156006 -0.0006059222577496858 -3.328068899567841e-05
-0.1145853102 -0.1003156006 -0.0006196206965337172 -2.674247205569992e-05
-0.1092638522 -0.1003156006 -0.0006394973317307666 -1.623506020790698e-05
-0.1039423943 -0.1003156006 -0.0006580772306812744 -6.64769256477333e-06
-0.09862093627 -0.1003156006 -0.0006873060838484818 7.448175459963132e-06
-0.09329947084 -0.1003156006 -0.0007179682910350459 1.770528562567027e-05
-0.08797801286 -0.1003156006 -0.0007484707683659205 2.7962313216024112e-05
-0.08265655488 -0.1003156006 -0.0007783273527635312 3.594548339245707e-05
-0.0773350969 -0.1003156006 -0.0007738293916601474 1.963321842692177e-05
-0.07201363891 -0.1003156006 -0.0007694934635922145 3.6320552203279065e-06
-0.06669218093 -0.1003156006 -0.00076530424282397 -1.2357312782755856e-05
-0.06137072667 -0.1003156006 -0.0007597300043013038 -3.105074440203437e-05
-0.05604926869 -0.1003156006 -0.0007564865626231684 -4.0009916549063936e-05
-0.05072781071 -0.1003156006 -0.0007534263511609813 -4.653356379940952e-05
-0.045406349 -0.1003156006 -0.0007489873680661329 -5.372256832983622e-05
-0.04008489102 -0.1003156006 -0.0007468847075254263 -5.93105118605523e-05
-0.03476343304 -0.1003156006 -0.0007474812185418693 -6.388123198988465e-05
-0.02944197692 -0.1003156006 -0.0007521014727734266 -6.549010648959534e-05
-0.02412051894 -0.1003156006 -0.0007573286193115796 -6.718928319996788e-05
-0.01879905909 -0.1003156006 -0.0007636527581288508 -6.906080898889697e-05
-0.01347760204 -0.1003156006 -0.0007692076612734731 -7.073409495485567e-05
-0.00815614406 -0.1003156006 -0.0007694490328925959 -7.370290542630687e-05
-0.00283468538 -0.1003156006 -0.0007657893096330037 -7.711877004407546e-05
0.002486772602 -0.1003156006 -0.0007618014599452169 -8.11225508442935e-05
0.007808230817 -0.1003156006 -0.0007572714748453827 -8.51345818554954e-05
0.0131296888 -0.1003156006 -0.0007536518349667024 -8.86680031928873e-05
0.01845114678 -0.1003156006 -0.0007514502881380721 -8.680429976093986e-05
0.02377260476 -0.1003156006 -0.0007510595999034852 -8.016694343690833e-05
0.02909406275 -0.1003156006 -0.0007495982125481478 -7.27811072013823e-05
0.03441552073 -0.1003156006 -0.0007479243925955805 -6.540020123775812e-05
0.03973697871 -0.1003156006 -0.0007471923183692888 -5.8642800401705e-05
0.04505843669 -0.1003156006 -0.0007530474716494744 -5.221932951670588e-05
0.05037989467 -0.1003156006 -0.0007710516803296648 -4.48343104099969e-05
0.05570135266 -0.1003156006 -0.000790590591328978 -3.653726765530552e-05
0.06102281436 -0.1003156006 -0.0008102741700258645 -2.8086138801997682e-05
0.06634426862 -0.1003156006 -0.0008289116300455511 -2.0397193096511303e-05
0.0716657266 -0.1003156006 -0.0008469359076047925 -1.3203899357324035e-05
0.07698718458 -0.1003156006 -0.0008746030819333713 -2.6629367034853193e-05
0.08230864257 -0.1003156006 -0.0009027287908708175 -4.1470389599508336e-05
0.08763010055 -0.1003156006 -0.0009330296138591843 -5.6527991657905764e-05
0.09295155853 -0.1003156006 -0.0009613518419461921 -7.13698498773911e-05
0.09827301651 -0.1003156006 -0.0009896272912842592 -8.609561930070464e-05
0.1035944745 -0.1003156006 -0.0010110885127844473 -0.00010711912192637293
0.1089159325 -0.1003156006 -0.0010198607654248663 -0.000140230826092089
0.1142373979 -0.1003156006 -0.001028937375834309 -0.0001733690910842217
0.1195588559 -0.1003156006 -0.001037263653338541 -0.0002049071811985194
0.1248803139 -0.1003156006 -0.0010454688516897818 -0.00023704682214791402
0.1302017719 -0.1003156006 -0.001054538609593427 -0.0002695392532008932
0.1355232298 -0.1003156006 -0.001050957821636504 -0.00029582839538633504
0.1408446878 -0.1003156006 -0.0010395376408522349 -0.00031714316994079596
0.1461661458 -0.1003156006 -0.0010281113573244664 -0.00033815077340985884
0.1514876038 -0.1003156006 -0.0010171861577518901 -0.0003591495218751859
0.1568090618 -0.1003156006 -0.0010063068092573415 -0.00038015913227817147
0.1621305197 -0.1003156006 -0.0009952077332353352 -0.00040107266234829756
0.1674519777 -0.1003156006 -0.000989147652645542 -0.00042174067253724083
0.1727734357 -0.1003156006 -0.0009856522721386355 -0.0004424323369343485
0.1780948937 -0.1003156006 -0.0009819571401797206 -0.000463117715548075
0.1834163517 -0.1003156006 -0.0009780439342703883 -0.00048381771863869954
0.1887378097 -0.1003156006 -0.0009730917604219058 -0.0005044773444069388
0.1940592676 -0.1003156006 -0.000966733076868538 -0.0005251508004546019
0.1993807256 -0.1003156006 -0.0009458870189214565 -0.0005575036975949779
0.2047021836 -0.1003156006 -0.0009205376012289245 -0.0005935938280655052
0.2100236416 -0.1003156006 -0.0008950153210443531 -0.0006295520362236196
0.2153450996 -0.1003156006 -0.0008695147573444955 -0.0006621285784558237
0.2206665576 -0.1003156006 -0.0008432090960493467 -0.000695938120097053
0.2259880155 -0.1003156006 -0.0008169593922459111 -0.0007298918030823131
0.2313094735 -0.1003156006 -0.0007584592073028507 -0.0007449987804112962
0.2366309315 -0.1003156006 -0.0006933887766653001 -0.000752523496300165
0.2419523895 -0.1003156006 -0.0006296425974049081 -0.0007593697225655392
0.2472738475 -0.1003156006 -0.0005660033271695534 -0.0007664859784911012
0.2525953054 -0.1003156006 -0.0005042139871637043 -0.0007739543382859523
0.2579167783 -0.1003156006 -0.0004441844727891524 -0.0007804211269809381
0.2632382214 -0.1003156006 -0.00039052363904476956 -0.0007415982113762791
0.2685596943 -0.1003156006 -0.00033873405117916034 -0.0006905142768218168
0.2738811374 -0.1003156006 -0.00028491445430570784 -0.0006378764924656312
0.2792026103 -0.1003156006 -0.00023357481591179376 -0.0005865363435654244
0.2845240533 -0.1003156006 -0.00018323693250817387 -0.0005383087094378633
0.2898455262 -0.1003156006 -0.00013329372252737656 -0.0004901365938627447
0.2951669693 -0.1003156006 -0.00013343145801213168 -0.00042959366009803063
0.3004884422 -0.1003156006 -0.00014155728771499435 -0.00036760412801430765
0.3058098853 -0.1003156006 -0.00014760748435062334 -0.00031020341616846573
0.3111313581 -0.1003156006 -0.00015374705347063718 -0.0002527914086519571
0.3164528012 -0.1003156006 -0.00015920451675855633 -0.00019540541328061668
0.3217742741 -0.1003156006 -0.00016598061745714233 -0.00013883661916172903
0.3270957172 -0.1003156006 -0.00020470465266384639 -0.00011886694012334721
0.3324171901 -0.1003156006 -0.00024459689078051914 -9.862319716154002e-05
0.3377386332 -0.1003156006 -0.0002824170775712676 -7.841247704177787e-05
0.343060106 -0.1003156006 -0.00032183771751384527 -5.826181061388967e-05
0.3483815491 -0.1003156006 -0.0003555446875216334 -3.991547168252372e-05
0.353703022 -0.1003156006 -0.0003906892111042783 -3.2667581302234224e-05
0.3590244651 -0.1003156006 -0.0004268732847073697 -5.083915433160722e-05
0.364345938 -0.1003156006 -0.0004627729595706663 -6.894853720019552e-05
0.369667381 -0.1003156006 -0.0004940207043250236 -8.654291920216885e-05
0.3749888539 -0.1003156006 -0.0005264003479584957 -0.00010414622220852159
0.380310297 -0.1003156006 -0.000559437764686268 -0.00012173599610701679
0.3856317699 -0.1003156006 -0.0005736873163752723 -0.00016881937534907602
0.390953213 -0.1003156006 -0.0005775555904119121 -0.0002200536257216961
0.3962746859 -0.1003156006 -0.0005812817109454978 -0.00027073991140965856
0.4015961289 -0.1003156006 -0.0005854567246872936 -0.0003212123979371322
0.4069176018 -0.1003156006 -0.0005914345846710112 -0.0003713258469315471
0.4122390449 -0.1003156006 -0.0005763275774810538 -0.00041820552097373377
0.4175605178 -0.1003156006 -0.0005344491443205305 -0.0004681229224509096
0.4228819609 -0.1003156006 -0.0004908334286174664 -0.0005202227966994368
0.4282034338 -0.1003156006 -0.00044734334588540924 -0.0005717852553822315
0.4335248768 -0.1003156006 -0.0004078518599483934 -0.0006183944416592107
0.4388463497 -0.1003156006 -0.0003601849240125483 -0.0006572344495863612
0.4441677928 -0.1003156006 -0.00029401264449411944 -0.0006739258444571256
0.4494892657 -0.1003156006 -0.00022877482857590518 -0.0006906376049135108
0.4548107088 -0.1003156006 -0.00016747669686871695 -0.000707132543581655
0.4601321816 -0.1003156006 -0.00010387447534528112 -0.0007236801288902243
0.4654536247 -0.1003156006 -4.304378913521044e-05 -0.0007312139415223256
0.4707750976 -0.1003156006 1.1324397322847519e-05 -0.0007250308410636741
0.4760965407 -0.1003156006 6.307776164387254e-05 -0.0007202681702786344
0.4814180136 -0.1003156006 0.0001158556270477634 -0.0007154409241333604
0.4867394567 -0.1003156006 0.0001687044235367829 -0.0007105649783252246
0.4920609295 -0.1003156006 0.0002092309899712111 -0.0007046480744721947
0.4973823726 -0.1003156006 0.0002473131977835407 -0.0006987552197102342
0.5027038455 -0.1003156006 0.00028411290695101065 -0.0006928605890304932
0.5080252886 -0.1003156006 0.00032094574022631324 -0.000687065003324443
0.5133467317 -0.1003156006 0.00035671885318659425 -0.0006852134791787245
0.5186682343 -0.1003156006 0.00039095743389979087 -0.0006875302462144472
0.5239896774 -0.1003156006 0.0004248309649153119 -0.0006898351822608067
0.5293111205 -0.1003156006 0.00045861372946981736 -0.0006920041593557782
0.5346325636 -0.1003156006 0.0004961665266219674 -0.0006958831845732789
0.5399540663 -0.1003156006 0.0005384132036195845 -0.0007036239728318514
0.5452755094 -0.1003156006 0.0005806567941474655 -0.0007120196776149967
0.5505969524 -0.1003156006 0.0006222985547809123 -0.0007191372062477801
0.5559183955 -0.1003156006 0.0006717663933123931 -0.0007253452400134353
0.5612398982 -0.1003156006 0.0007257714120673366 -0.0007331876347683549
0.5665613413 -0.1003156006 0.000778633518160946 -0.0007407419458526343
0.5718827844 -0.1003156006 0.0008333846937722887 -0.0007451302030051162
0.5772042274 -0.1003156006 0.0008943861159665593 -0.0007487486688976622
0.5825257301 -0.1003156006 0.0009563972029292536 -0.00075228034823388
0.5878471732 -0.1003156006 0.001018696327744773 -0.0007535277593892957
0.5931686163 -0.1003156006 0.0010828881229424257 -0.0007528183634949735
0.5984900594 -0.1003156006 0.0011473488647048935 -0.0007528184990389205
0.6038115621 -0.1003156006 0.0012148150318876906 -0.0007498189834602086
0.6091330051 -0.1003156006 0.0012812473586193839 -0.0007460958413207677
0.6144544482 -0.1003156006 0.0013511878343067342 -0.0007406075565886688
0.6197758913 -0.1003156006 0.00142120500178068 -0.0007330396234936383
0.625097394 -0.1003156006 0.0014926848255804187 -0.0007242711672955048
0.6304188371 -0.1003156006 0.0015664449460312485 -0.0007137772050813013
0.6357402802 -0.1003156006 0.0016402576754954929 -0.0007024609155260012
0.6410617828 -0.1003156006 0.001714609209684244 -0.0006910649451652283
0.6463832259 -0.1003156006 0.0017880540108297094 -0.0006799956628736791
0.651704669 -0.1003156006 0.0018622057058607796 -0.0006698076784232478
0.6570261121 -0.1003156006 0.0019383588808960497 -0.0006601632443899802
0.6623476148 -0.1003156006 0.002017116995346773 -0.0006524061070274012
0.6676690578 -0.1003156006 0.002097623792121727 -0.0006466456211297305
0.6729905009 -0.1003156006 0.002183664316739976 -0.0006440314330236162
0.678311944 -0.1003156006 0.002273807775485346 -0.0006425802642524303
0.6836334467 -0.1003156006 0.00236729416700832 -0.0006440643519841384
0.6889548898 -0.1003156006 0.0024697473268085477 -0.0006503195512173349
0.6942763329 -0.1003156006 0.0025810939970950094 -0.0006572912945450789
0.6995977759 -0.1003156006 0.0027022945996077264 -0.0006663129463582765
0.7049192786 -0.1003156006 0.002834407814918653 -0.0006767265102744717
0.7102407217 -0.1003156006 0.0029807865375191815 -0.0006884237569756985
0.7155621648 -0.1003156006 0.003144031203599132 -0.0006979424423679072
0.7208836079 -0.1003156006 0.0033228652813735993 -0.0007022951661186347
0.7262051105 -0.1003156006 0.003518338243772232 -0.000701422076165012
0.7315265536 -0.1003156006 0.003734438656546899 -0.0006923483407744776
0.7368479967 -0.1003156006 0.003978922499310562 -0.0006672117354217306
0.7421694398 -0.1003156006 0.004243783800039148 -0.0006294375396032918
0.7474909425 -0.1003156006 0.004516917731907002 -0.0005694088764358476
0.7528123856 -0.1003156006 0.004823265846930031 -0.0004830543532151956
0.7581338286 -0.1003156006 0.00515043155013837 -0.0003686543810724633
-0.3008363545 -0.09699654579 -0.00010284119544586074 5.339189625832917e-05
-0.2955148816 -0.09699654579 -5.1875098222066176e-05 9.391809080991816e-05
-0.2901934385 -0.09699654579 -9.91407677399749e-06 0.00013861659565947285
-0.2848719656 -0.09699654579 -7.160254926160548e-06 0.00016038975988312424
-0.2795505226 -0.09699654579 -9.6732190317012e-07 0.00018331681355454168
-0.2742290497 -0.09699654579 3.076358092207249e-06 0.00019764098746752608
-0.2689076066 -0.09699654579 7.730465357757798e-06 0.00020360793526277905
-0.2635861337 -0.09699654579 -1.7147648959162054e-05 0.00023365142866942188
-0.2582646906 -0.09699654579 -0.0001338770078948653 0.00030561717003704277
-0.2529432178 -0.09699654579 -0.0002919454659090556 0.0003892947956609025
-0.2476217598 -0.09699654579 -0.0004939140670985884 0.00048122534503637686
-0.2423003018 -0.09699654579 -0.0006424503124973431 0.000532705300627364
-0.2369788438 -0.09699654579 -0.0006085454594632487 0.0004563834853846681
-0.2316573858 -0.09699654579 -0.0005779854115247447 0.0003464567651720254
-0.2263359278 -0.09699654579 -0.0005380578449940762 0.00020818807621891705
-0.2210144699 -0.09699654579 -0.0005765684740076237 0.00013953082044998122
-0.2156930119 -0.09699654579 -0.0006240768191648901 7.78346498149119e-05
-0.2103715539 -0.09699654579 -0.0006705998067757341 1.5049017838256662e-05
-0.2050500959 -0.09699654579 -0.0006838956386962333 -1.628377870573767e-05
-0.1997286379 -0.09699654579 -0.0006918198831003405 -2.5533843416877674e-05
-0.19440718 -0.09699654579 -0.0007034972077476282 -4.735813228815223e-05
-0.189085722 -0.09699654579 -0.0006429557460538709 -9.187233697791645e-05
-0.183764264 -0.09699654579 -0.0005688255830371756 -0.00012642234229533642
-0.178442806 -0.09699654579 -0.0004931795823361577 -0.00013574300666027538
-0.173121348 -0.09699654579 -0.0004820441328964109 -0.00011742180619088582
-0.16779989 -0.09699654579 -0.0004984148558465441 -6.268731067160426e-05
-0.1624784321 -0.09699654579 -0.0005209151118018893 1.3521231021360057e-05
-0.1571569741 -0.09699654579 -0.0005430429193678162 4.616318287115642e-05
-0.1518355161 -0.09699654579 -0.0005641010513748905 6.481433851400604e-05
-0.1465140581 -0.09699654579 -0.0005812247267148874 7.378109511933227e-05
-0.1411926001 -0.09699654579 -0.0005885614821477595 6.98912911521083e-05
-0.1358711421 -0.09699654579 -0.0005721104390787099 3.5609782774867485e-05
-0.1305496842 -0.09699654579 -0.0005544787940778976 2.5016694152614878e-06
-0.1252282262 -0.09699654579 -0.0005417528489788266 -3.0178990691124095e-05
-0.1199067682 -0.09699654579 -0.000563823780175004 -2.5061183824872834e-05
-0.1145853102 -0.09699654579 -0.0005922116327588477 -1.1297655805935516e-05
-0.1092638522 -0.09699654579 -0.0006238352724731093 4.588516347342868e-06
-0.1039423943 -0.09699654579 -0.0006625421149709875 2.5322722595418135e-05
-0.09862093627 -0.09699654579 -0.0006972538342402713 3.397414508066863e-05
-0.09329947084 -0.09699654579 -0.0007313487540636876 4.008915445932564e-05
-0.08797801286 -0.09699654579 -0.0007652186156476526 4.3579076395237207e-05
-0.08265655488 -0.09699654579 -0.0007975594358503245 4.8185854997858165e-05
-0.0773350969 -0.09699654579 -0.0007916959849268959 2.882711679664099e-05
-0.07201363891 -0.09699654579 -0.0007846474720317454 7.636547831242524e-06
-0.06669218093 -0.09699654579 -0.000778665857576739 -1.360748590214531e-05
-0.06137072667 -0.09699654579 -0.0007765529421828712 -3.481221769461766e-05
-0.05604926869 -0.09699654579 -0.0007786705001318294 -4.27038889092124e-05
-0.05072781071 -0.09699654579 -0.0007816807685656472 -4.683814375302629e-05
-0.045406349 -0.09699654579 -0.00078422944831668 -5.097978717523304e-05
-0.04008489102 -0.09699654579 -0.0007879343888237366 -5.4838597987633754e-05
-0.03476343304 -0.09699654579 -0.0007947111444137128 -5.8383147068199714e-05
-0.02944197692 -0.09699654579 -0.0008030012003285567 -6.089914575696943e-05
-0.02412051894 -0.09699654579 -0.000811821358036837 -6.330005378541827e-05
-0.01879905909 -0.09699654579 -0.0008207186472308177 -6.579723428085116e-05
-0.01347760204 -0.09699654579 -0.0008294836490656513 -6.853398510807444e-05
-0.00815614406 -0.09699654579 -0.0008308386293078785 -7.274259554139135e-05
-0.00283468538 -0.09699654579 -0.0008258648404936963 -7.753971395305178e-05
0.002486772602 -0.09699654579 -0.0008205202307961911 -8.26464796145432e-05
0.007808230817 -0.09699654579 -0.0008149876494490621 -8.785621829035767e-05
0.0131296888 -0.09699654579 -0.0008096061689383924 -9.280098912596135e-05
0.01845114678 -0.09699654579 -0.0008058624249510306 -9.009493372512715e-05
0.02377260476 -0.09699654579 -0.0008035991548901474 -8.126867513387113e-05
0.02909406275 -0.09699654579 -0.0007995473231586221 -7.151531155771338e-05
0.03441552073 -0.09699654579 -0.0007959097263517222 -6.16163960005765e-05
0.03973697871 -0.09699654579 -0.000793163531893286 -5.2741789607312215e-05
0.04505843669 -0.09699654579 -0.0007984088300091325 -4.395128348184217e-05
0.05037989467 -0.09699654579 -0.000818275263243582 -3.437152527155556e-05
0.05570135266 -0.09699654579 -0.0008379022565997349 -2.457445466714276e-05
0.06102281436 -0.09699654579 -0.0008580732159171936 -1.4241311364765911e-05
0.06634426862 -0.09699654579 -0.0008780780712914939 -4.832491525078842e-06
0.0716657266 -0.09699654579 -0.0008973351772728249 4.596608794252834e-06
0.07698718458 -0.09699654579 -0.0009280894535341372 -1.0149777267218494e-05
0.08230864257 -0.09699654579 -0.0009590471840765781 -2.610321219659832e-05
0.08763010055 -0.09699654579 -0.0009899216418103247 -4.179817886579174e-05
0.09295155853 -0.09699654579 -0.0010201295647392433 -5.739497154141827e-05
0.09827301651 -0.09699654579 -0.0010506081767545242 -7.309008118573487e-05
0.1035944745 -0.09699654579 -0.0010737555956133109 -9.60177263728575e-05
0.1089159325 -0.09699654579 -0.0010830122309385256 -0.0001315871583231038
0.1142373979 -0.09699654579 -0.0010924291453083196 -0.00016632857549917561
0.1195588559 -0.09699654579 -0.00110109859605402 -0.00020033908565113552
0.1248803139 -0.09699654579 -0.001110326158212617 -0.00023434622742593588
0.1302017719 -0.09699654579 -0.0011193936307911804 -0.00026898736130608194
0.1355232298 -0.09699654579 -0.0011138572079827129 -0.0002959946451335857
0.1408446878 -0.09699654579 -0.0011010427005005358 -0.0003174702646336921
0.1461661458 -0.09699654579 -0.0010887542839708036 -0.00033892074679062954
0.1514876038 -0.09699654579 -0.0010759643751270015 -0.00036045350627119673
0.1568090618 -0.09699654579 -0.0010633486253198534 -0.0003820004408733401
0.1621305197 -0.09699654579 -0.0010510111482491889 -0.0004034400986360776
0.1674519777 -0.09699654579 -0.0010446122734217255 -0.00042467124743713583
0.1727734357 -0.09699654579 -0.0010395750146703845 -0.00044585163140096264
0.1780948937 -0.09699654579 -0.0010359756645997762 -0.0004672322331507181
0.1834163517 -0.09699654579 -0.0010317694717059712 -0.0004885135355457478
0.1887378097 -0.09699654579 -0.0010264759874604517 -0.0005096671925448388
0.1940592676 -0.09699654579 -0.0010211079017674013 -0.0005307982615125297
0.1993807256 -0.09699654579 -0.0009997445318777338 -0.0005681783541611001
0.2047021836 -0.09699654579 -0.00097377757372397 -0.0006098848132886419
0.2100236416 -0.09699654579 -0.0009470725411385256 -0.000648189096982909
0.2153450996 -0.09699654579 -0.0009203984225472319 -0.0006863035446135014
0.2206665576 -0.09699654579 -0.0008936433301819208 -0.0007244175609066524
0.2259880155 -0.09699654579 -0.0008666675757039442 -0.0007625090768165533
0.2313094735 -0.09699654579 -0.0008047797793191382 -0.0007787463083240689
0.2366309315 -0.09699654579 -0.0007339390260871079 -0.0007888617367230757
0.2419523895 -0.09699654579 -0.0006634607780730197 -0.0007989347205286335
0.2472738475 -0.09699654579 -0.0005925812168943398 -0.0008090341213970616
0.2525953054 -0.09699654579 -0.0005244395191155685 -0.0008178079793425477
0.2579167783 -0.09699654579 -0.0004590422233647951 -0.0008256435995559081
0.2632382214 -0.09699654579 -0.0003988995595025982 -0.0007791353234214185
0.2685596943 -0.09699654579 -0.0003398067731799994 -0.0007209743006879189
0.2738811374 -0.09699654579 -0.00028375041684675073 -0.0006651756598310947
0.2792026103 -0.09699654579 -0.00022912273414510176 -0.0006118706269537645
0.2845240533 -0.09699654579 -0.00017433443810178922 -0.0005581790684306062
0.2898455262 -0.09699654579 -0.0001185706904139711 -0.0005031574087924351
0.2951669693 -0.09699654579 -0.00012186656787742407 -0.0004364490223232201
0.3004884422 -0.09699654579 -0.00013034404237192778 -0.0003716742184897516
0.3058098853 -0.09699654579 -0.0001403571434755046 -0.0003068565948227447
0.3111313581 -0.09699654579 -0.00014991142014183557 -0.0002420022661158116
0.3164528012 -0.09699654579 -0.00015918139418657763 -0.00017919140429417712
0.3217742741 -0.09699654579 -0.00016780749297228405 -0.00012178827899085145
0.3270957172 -0.09699654579 -0.00021189072565705883 -9.998425264560558e-05
0.3324171901 -0.09699654579 -0.0002558751545407913 -7.812328614005545e-05
0.3377386332 -0.09699654579 -0.0002983588759776561 -5.713631508528963e-05
0.343060106 -0.09699654579 -0.0003393404974269985 -3.676419071949408e-05
0.3483815491 -0.09699654579 -0.00038012496078232145 -1.6138442269096417e-05
0.353703022 -0.09699654579 -0.00042187622812422346 -9.30853155568056e-06
0.3590244651 -0.09699654579 -0.0004640781125375878 -2.911364214449887e-05
0.364345938 -0.09699654579 -0.0005027173959175729 -4.817784356802748e-05
0.369667381 -0.09699654579 -0.0005406165770495143 -6.711474160051743e-05
0.3749888539 -0.09699654579 -0.0005801907674173876 -8.568544946923992e-05
0.380310297 -0.09699654579 -0.000616621968052667 -0.00010403671344888514
0.3856317699 -0.09699654579 -0.0006295165857808224 -0.00015263040925384181
0.390953213 -0.09699654579 -0.0006373093455542658 -0.00021057497110860303
0.3962746859 -0.09699654579 -0.0006472431465782585 -0.0002705520439416546
0.4015961289 -0.09699654579 -0.0006540743559570773 -0.0003266222039344726
0.4069176018 -0.09699654579 -0.0006600034828413657 -0.00038025473730155066
0.4122390449 -0.09699654579 -0.0006422780966208922 -0.00043588450736828317
0.4175605178 -0.09699654579 -0.0005937004531696206 -0.0004942100146726091
0.4228819609 -0.09699654579 -0.0005471666737534324 -0.0005473505893964406
0.4282034338 -0.09699654579 -0.0005021693687646407 -0.0005991237889952445
0.4335248768 -0.09699654579 -0.0004573630004909925 -0.0006512393978852951
0.4388463497 -0.09699654579 -0.00040208982903497793 -0.0006946675489851484
0.4441677928 -0.09699654579 -0.00033017421884462236 -0.0007112359917938104
0.4494892657 -0.09699654579 -0.00025965342211635195 -0.0007280473314072646
0.4548107088 -0.09699654579 -0.00018926622924316086 -0.000744998477587083
0.4601321816 -0.09699654579 -0.00012117005052549235 -0.0007619558486349735
0.4654536247 -0.09699654579 -6.111279829855991e-05 -0.0007688765070025128
0.4707750976 -0.09699654579 -5.388806991891146e-06 -0.0007614139591128763
0.4760965407 -0.09699654579 5.122973049298211e-05 -0.0007525849585021724
0.4814180136 -0.09699654579 0.00010712701965958726 -0.0007450573180239925
0.4867394567 -0.09699654579 0.00016128000299718857 -0.0007387775706554406
0.4920609295 -0.09699654579 0.00020159460081131027 -0.0007312685092716605
0.4973823726 -0.09699654579 0.00023874892356746477 -0.0007234628998614926
0.5027038455 -0.09699654579 0.0002757952222991547 -0.000717011932660346
0.5080252886 -0.09699654579 0.00031343093151727983 -0.0007098014618454459
0.5133467317 -0.09699654579 0.00034853699773518113 -0.0007073297580866147
0.5186682343 -0.09699654579 0.000381416625034352 -0.0007102922802614149
0.5239896774 -0.09699654579 0.0004155598790569913 -0.0007126520315142122
0.5293111205 -0.09699654579 0.0004497813550146483 -0.000715337725062453
0.5346325636 -0.09699654579 0.0004867015777317371 -0.000721691857713765
0.5399540663 -0.09699654579 0.0005294241855837691 -0.0007308391706807269
0.5452755094 -0.09699654579 0.0005713962562874001 -0.0007392406612151371
0.5505969524 -0.09699654579 0.0006146755801550079 -0.000748397136025525
0.5559183955 -0.09699654579 0.0006655447336928791 -0.0007583992992905055
0.5612398982 -0.09699654579 0.0007180803180420585 -0.0007663599816278588
0.5665613413 -0.09699654579 0.0007720491874470742 -0.00077439381561384
0.5718827844 -0.09699654579 0.000829608326413759 -0.0007827935197840158
0.5772042274 -0.09699654579 0.0008913790147629363 -0.0007870533327914736
0.5825257301 -0.09699654579 0.0009525094754397941 -0.0007912666551033623
0.5878471732 -0.09699654579 0.0010177455690632455 -0.0007947585747693377
0.5931686163 -0.09699654579 0.0010837141557874434 -0.0007947603849319918
0.5984900594 -0.09699654579 0.0011512875501267438 -0.0007948638292871167
0.6038115621 -0.09699654579 0.00121951182573975 -0.0007924393993696342
0.6091330051 -0.09699654579 0.0012888379280531414 -0.0007887792252744764
0.6144544482 -0.09699654579 0.0013583570199537146 -0.0007840130692769602
0.6197758913 -0.09699654579 0.0014305132205562994 -0.0007765696960166813
0.625097394 -0.09699654579 0.0015025516085145278 -0.0007684559610702817
0.6304188371 -0.09699654579 0.0015757248675804696 -0.0007584812597419906
0.6357402802 -0.09699654579 0.00164995578630463 -0.000748219301323895
0.6410617828 -0.09699654579 0.0017235235843196947 -0.0007369015129693626
0.6463832259 -0.09699654579 0.00179817086216855 -0.0007266375802433303
0.651704669 -0.09699654579 0.0018724027271512264 -0.0007169830960592926
0.6570261121 -0.09699654579 0.001948280074429839 -0.0007089399758153464
0.6623476148 -0.09699654579 0.002026964618610368 -0.000702087973163519
0.6676690578 -0.09699654579 0.0021064703650069566 -0.0006979333823052171
0.6729905009 -0.09699654579 0.0021896482351751205 -0.0006967233636011796
0.678311944 -0.09699654579 0.0022762343545841964 -0.0006994980604687011
0.6836334467 -0.09699654579 0.0023671908586489748 -0.0007048355132244572
0.6889548898 -0.09699654579 0.002467621733732845 -0.0007142860705060333
0.6942763329 -0.09699654579 0.0025777906473870293 -0.0007270539408931705
0.6995977759 -0.09699654579 0.002696814712306548 -0.0007448016960053701
0.7049192786 -0.09699654579 0.00282808797382274 -0.0007634547712488949
0.7102407217 -0.09699654579 0.0029743798121148173 -0.0007827395545854676
0.7155621648 -0.09699654579 0.003139873708659099 -0.0008018273651460944
0.7208836079 -0.09699654579 0.0033234524452805713 -0.0008211562899745696
0.7262051105 -0.09699654579 0.003526900733040765 -0.000834170894447538
0.7315265536 -0.09699654579 0.003749305063999288 -0.000837872028183742
0.7368479967 -0.09699654579 0.003998433830084727 -0.0008309326227540189
0.7421694398 -0.09699654579 0.004272221529900502 -0.000802924355158405
0.7474909425 -0.09699654579 0.004568897885044712 -0.0007594865366963164
0.7528123856 -0.09699654579 0.0048890135720379875 -0.0006838775298480411
0.7581338286 -0.09699654579 0.005233152710461723 -0.0005794107266780526
-0.3008363545 -0.09367749095 -0.0001495763209665581 5.3259007172402435e-05
-0.2955148816 -0.09367749095 -9.885076166254424e-05 9.28194902206148e-05
-0.2901934385 -0.09367749095 -1.226589511345687e-05 0.0001531434988071487
-0.2848719656 -0.09367749095 1.2780328145496085e-05 0.00019292690169326156
-0.2795505226 -0.09367749095 1.722068632267179e-05 0.00021417713405413172
-0.2742290497 -0.09367749095 1.8024842247253212e-05 0.00022501011429347108
-0.2689076066 -0.09367749095 2.465079373385016e-05 0.0002326458100824539