VARIABLES = X,Y,phix,phiy
ZONE I=200,J=200,F=POINT 
-0.3008363545 -0.1003156006 -0.0007134876736217974 0.0002443290424249
-0.2955148816 -0.1003156006 -0.0007068984276564014 0.00024177686487577372
-0.2901934385 -0.1003156006 -0.0007204186186110934 0.00026362559600716704
-0.2848719656 -0.1003156006 -0.0007373620660740302 0.000283304614445977
-0.2795505226 -0.1003156006 -0.0007546116725348302 0.00031084911874826527
-0.2742290497 -0.1003156006 -0.0007637438431941339 0.0003556483795008509
-0.2689076066 -0.1003156006 -0.000747064944542374 0.000431681378248678
-0.2635861337 -0.1003156006 -0.0007293436826680234 0.0005128248435908723
-0.2582646906 -0.1003156006 -0.0007382226990201333 0.0005649149847730818
-0.2529432178 -0.1003156006 -0.0007661428590162054 0.0006123072489234688
-0.2476217598 -0.1003156006 -0.0007792478378004091 0.0006636656375438749
-0.2423003018 -0.1003156006 -0.0007986858115774082 0.0006704016292722564
-0.2369788438 -0.1003156006 -0.0008651396784418039 0.0006491257488869397
-0.2316573858 -0.1003156006 -0.0009334691032674596 0.0005927373028266481
-0.2263359278 -0.1003156006 -0.0010215702218612929 0.0005067774632362672
-0.2210144699 -0.1003156006 -0.0010599751066648496 0.00047998565084687113
-0.2156930119 -0.1003156006 -0.001097287803014981 0.00046192708324949556
-0.2103715539 -0.1003156006 -0.0011301446848877633 0.0004422878947647092
-0.2050500959 -0.1003156006 -0.0011517623535185356 0.0004387329149616786
-0.1997286379 -0.1003156006 -0.0011800963369743896 0.00045207400036121037
-0.19440718 -0.1003156006 -0.0011856395924500045 0.0004356866794244054
-0.189085722 -0.1003156006 -0.0011907477918868437 0.00037938374439373644
-0.183764264 -0.1003156006 -0.0012020551166393495 0.00030294218263510767
-0.178442806 -0.1003156006 -0.0012139741485394523 0.00022831108143938947
-0.173121348 -0.1003156006 -0.0011877675155371476 0.00017777474073572296
-0.16779989 -0.1003156006 -0.0011575605149239379 0.00013419829374060856
-0.1624784321 -0.1003156006 -0.0011238871707484725 8.544474191718833e-05
-0.1571569741 -0.1003156006 -0.0010891240127464338 5.128804563731159e-05
-0.1518355161 -0.1003156006 -0.0010554418354961459 2.2014959698347758e-05
-0.1465140581 -0.1003156006 -0.001021730052552842 -9.478979151884157e-06
-0.1411926001 -0.1003156006 -0.0009880082297052863 -3.328850125286737e-05
-0.1358711421 -0.1003156006 -0.0009548651207919415 -4.205784493288054e-05
-0.1305496842 -0.1003156006 -0.0009212827331286764 -5.080861274586042e-05
-0.1252282262 -0.1003156006 -0.0008894616683843855 -5.333105394092377e-05
-0.1199067682 -0.1003156006 -0.0008785056404797181 -3.941664232441714e-05
-0.1145853102 -0.1003156006 -0.0008723435561690135 -2.0984754418549422e-05
-0.1092638522 -0.1003156006 -0.000867440492653646 -1.3343041836243062e-06
-0.1039423943 -0.1003156006 -0.000862907279240655 1.6919960543011794e-05
-0.09862093627 -0.1003156006 -0.0008573934197631561 2.96163435144326e-05
-0.09329947084 -0.1003156006 -0.0008526314210180303 4.0732739062321815e-05
-0.08797801286 -0.1003156006 -0.0008475517652517999 5.186936729342897e-05
-0.08265655488 -0.1003156006 -0.0008450421715092189 6.293389590095988e-05
-0.0773350969 -0.1003156006 -0.00084829463289973 7.208870731036442e-05
-0.07201363891 -0.1003156006 -0.0008524826908909064 8.099978867899946e-05
-0.06669218093 -0.1003156006 -0.0008554233718998502 8.991750184683808e-05
-0.06137072667 -0.1003156006 -0.000859809154608105 9.97768878889371e-05
-0.05604926869 -0.1003156006 -0.0008688634303041737 0.0001098807905213963
-0.05072781071 -0.1003156006 -0.0008798884843797983 0.00012021663890224493
-0.045406349 -0.1003156006 -0.0008895108469813644 0.0001300043300732733
-0.04008489102 -0.1003156006 -0.000900133052840239 0.00014075247715316456
-0.03476343304 -0.1003156006 -0.0009101866777492917 0.00014990334676677852
-0.02944197692 -0.1003156006 -0.0009187289692841398 0.0001561036293258711
-0.02412051894 -0.1003156006 -0.0009285996287073908 0.0001621973517027526
-0.01879905909 -0.1003156006 -0.000936988534721556 0.00016818953439217988
-0.01347760204 -0.1003156006 -0.0009463671875661851 0.00017426484239036166
-0.00815614406 -0.1003156006 -0.0009557254648303226 0.0001811569473177623
-0.00283468538 -0.1003156006 -0.0009661422907987164 0.00018868886219844315
0.002486772602 -0.1003156006 -0.0009754892903232067 0.00019593572191738844
0.007808230817 -0.1003156006 -0.0009846417799504767 0.0002031863267336449
0.0131296888 -0.1003156006 -0.0009944275535647199 0.00021067337612431966
0.01845114678 -0.1003156006 -0.0010034843973293524 0.00021167169197192393
0.02377260476 -0.1003156006 -0.0010108699999372922 0.00020774450442688432
0.02909406275 -0.1003156006 -0.0010169456430040706 0.0002034894866620019
0.03441552073 -0.1003156006 -0.0010233871369446435 0.00019923618892564654
0.03973697871 -0.1003156006 -0.0010301485886751271 0.0001952532845344335
0.04505843669 -0.1003156006 -0.0010307224196845037 0.00019046713078686074
0.05037989467 -0.1003156006 -0.0010199670718241973 0.00018408544731500953
0.05570135266 -0.1003156006 -0.0010071754480706148 0.0001764660281144325
0.06102281436 -0.1003156006 -0.0009944969564093886 0.00016879255227825264
0.06634426862 -0.1003156006 -0.0009836017905900782 0.00016195275463984536
0.0716657266 -0.1003156006 -0.0009729397273509781 0.00015578869620233156
0.07698718458 -0.1003156006 -0.0009557231657899983 0.00016747616055556153
0.08230864257 -0.1003156006 -0.000938503377673488 0.0001804328269653746
0.08763010055 -0.1003156006 -0.000920012359605194 0.00019403937867461108
0.09295155853 -0.1003156006 -0.0009022967487129482 0.00020700097785742192
0.09827301651 -0.1003156006 -0.0008858627034418552 0.00021956984471481142
0.1035944745 -0.1003156006 -0.0008784636872073546 0.00023024892670745197
0.1089159325 -0.1003156006 -0.0008911295925870936 0.00023673802156565346
0.1142373979 -0.1003156006 -0.0009038223388435347 0.00024321643094200122
0.1195588559 -0.1003156006 -0.000915835807741248 0.00024784329636859403
0.1248803139 -0.1003156006 -0.0009286595625121204 0.00025312371746054015
0.1302017719 -0.1003156006 -0.0009406170908927013 0.00025887792257870513
0.1355232298 -0.1003156006 -0.0009532109322317339 0.00024791987551479194
0.1408446878 -0.1003156006 -0.0009652431341735708 0.0002247217946708441
0.1461661458 -0.1003156006 -0.0009768653014798564 0.0002018168489912959
0.1514876038 -0.1003156006 -0.000988847047917835 0.00017895181067207166
0.1568090618 -0.1003156006 -0.0010003608521733497 0.00015608416894005963
0.1621305197 -0.1003156006 -0.0010117810978569747 0.00013328384452440147
0.1674519777 -0.1003156006 -0.0009868884974860129 0.00010484743349032744
0.1727734357 -0.1003156006 -0.0009466879752957128 7.30036480716973e-05
0.1780948937 -0.1003156006 -0.0009070985981011933 4.1169011273466825e-05
0.1834163517 -0.1003156006 -0.0008673633300733053 9.316377029093915e-06
0.1887378097 -0.1003156006 -0.0008285460924089836 -2.1383883518932615e-05
0.1940592676 -0.1003156006 -0.0007902474979977148 -4.927600491769533e-05
0.1993807256 -0.1003156006 -0.0007124276739724232 -3.781472285098541e-05
0.2047021836 -0.1003156006 -0.0006234851663154716 -1.377440474290736e-05
0.2100236416 -0.1003156006 -0.0005340971727541394 1.018790877821108e-05
0.2153450996 -0.1003156006 -0.0004510114987056867 3.408045820604992e-05
0.2206665576 -0.1003156006 -0.00036553929819371436 5.802868457871603e-05
0.2259880155 -0.1003156006 -0.0002818868990777091 8.205936097912338e-05
0.2313094735 -0.1003156006 -0.00022611574801003175 0.00018490253105503705
0.2366309315 -0.1003156006 -0.0001857851254319618 0.0003029720450159979
0.2419523895 -0.1003156006 -0.00014713511144387603 0.0004176219012642703
0.2472738475 -0.1003156006 -0.0001081398076213026 0.0005321280876623629
0.2525953054 -0.1003156006 -6.732702790397271e-05 0.0006452999734677528
0.2579167783 -0.1003156006 -2.78103699995623e-05 0.0007540150005904959
0.2632382214 -0.1003156006 -9.201565444966206e-05 0.0008470357240387966
0.2685596943 -0.1003156006 -0.00018367071752951598 0.0009378792930152215
0.2738811374 -0.1003156006 -0.0002782779921312134 0.0010313586620798473
0.2792026103 -0.1003156006 -0.00036984924753648556 0.001122752216658997
0.2845240533 -0.1003156006 -0.00045526210466422364 0.0012083979027339882
0.2898455262 -0.1003156006 -0.0005385322957567678 0.0012940057852483529
0.2951669693 -0.1003156006 -0.0006600426628225753 0.0012636922764340725
0.3004884422 -0.1003156006 -0.0007840990456590806 0.0012154511221808796
0.3058098853 -0.1003156006 -0.0008936429473146492 0.0011728958803070687
0.3111313581 -0.1003156006 -0.00100435677860381 0.0011303614394352426
0.3164528012 -0.1003156006 -0.001114228540346412 0.001087822169688075
0.3217742741 -0.1003156006 -0.0012221087765651867 0.0010430601876838873
0.3270957172 -0.1003156006 -0.0012247195715999147 0.0009212331782996945
0.3324171901 -0.1003156006 -0.0012263221877279627 0.00079919239650671
0.3377386332 -0.1003156006 -0.001228482352949514 0.0006771873355355528
0.343060106 -0.1003156006 -0.001230958057182579 0.0005551882507765079
0.3483815491 -0.1003156006 -0.0012297060854354776 0.00044578337203994664
0.353703022 -0.1003156006 -0.0011928298815785617 0.0003475247566341655
0.3590244651 -0.1003156006 -0.0010762229850687763 0.00027121590539378875
0.364345938 -0.1003156006 -0.0009572364344768533 0.00019494316948255708
0.369667381 -0.1003156006 -0.0008492106579509492 0.0001275497097060324
0.3749888539 -0.1003156006 -0.0007383491371493312 5.78035496048452e-05
0.380310297 -0.1003156006 -0.0006277222845972331 -1.2747160341985872e-05
0.3856317699 -0.1003156006 -0.0004869294494517532 -2.0653706386582515e-06
0.390953213 -0.1003156006 -0.0003516206460655527 3.230387058086262e-05
0.3962746859 -0.1003156006 -0.00021806017093293044 6.630711213674416e-05
0.4015961289 -0.1003156006 -8.522350702888691e-05 9.969735809337513e-05
0.4069176018 -0.1003156006 4.5396476644578065e-05 0.00013229437371778039
0.4122390449 -0.1003156006 0.0001406584149888116 0.00019141866329545256
0.4175605178 -0.1003156006 0.0002023354423516663 0.00029678230354218124
0.4228819609 -0.1003156006 0.0002671183610071256 0.00040561431785917745
0.4282034338 -0.1003156006 0.00033174671767130715 0.0005144954303876246
0.4335248768 -0.1003156006 0.0003891096484595313 0.0006109313374518748
0.4388463497 -0.1003156006 0.0004224135395939453 0.0007060342520350424
0.4441677928 -0.1003156006 0.0003926102420179425 0.0007973484692945445
0.4494892657 -0.1003156006 0.00036096524851871693 0.0008871472590200413
0.4548107088 -0.1003156006 0.00033594928868840206 0.00096981709231193
0.4601321816 -0.1003156006 0.0003068295401570788 0.0010564998172804371
0.4654536247 -0.1003156006 0.00026171178123630403 0.0011164800362875413
0.4707750976 -0.1003156006 0.00019540350292673476 0.0011345442417558232
0.4760965407 -0.1003156006 0.00013516168712336853 0.001152627731333323
0.4814180136 -0.1003156006 7.722025986476558e-05 0.0011707123206324216
0.4867394567 -0.1003156006 1.7454875169141827e-05 0.0011887506513632757
0.4920609295 -0.1003156006 -2.090887199262024e-05 0.0011583387178171485
0.4973823726 -0.1003156006 -5.0325198268717664e-05 0.001116650605705032
0.5027038455 -0.1003156006 -8.05301872491952e-05 0.0010752144780467197
0.5080252886 -0.1003156006 -0.00011055198831716679 0.0010336553722868084
0.5133467317 -0.1003156006 -0.00011074314378786098 0.000991938193452727
0.5186682343 -0.1003156006 -8.132172804519255e-05 0.0009338508529039558
0.5239896774 -0.1003156006 -5.00638229823053e-05 0.0008755856727962837
0.5293111205 -0.1003156006 -2.0303266176916898e-05 0.0008198190778331398
0.5346325636 -0.1003156006 2.8755366194447864e-05 0.0007817256303668317
0.5399540663 -0.1003156006 0.00010816826593522454 0.0007521932862549806
0.5452755094 -0.1003156006 0.0001897220740623062 0.0007208099856888147
0.5505969524 -0.1003156006 0.00026618373273026163 0.0006934680499748273
0.5559183955 -0.1003156006 0.00035370966561032566 0.0006955692219053747
0.5612398982 -0.1003156006 0.00045287469940321484 0.0007064858313019118
0.5665613413 -0.1003156006 0.0005505275129931886 0.0007173803728595997
0.5718827844 -0.1003156006 0.0006380154863034415 0.0007406390532177934
0.5772042274 -0.1003156006 0.000728241844343686 0.0007860845542448248
0.5825257301 -0.1003156006 0.0008190711973819302 0.0008314406887177916
0.5878471732 -0.1003156006 0.0008977472506418404 0.0008842495463416669
0.5931686163 -0.1003156006 0.0009692268044848341 0.0009506546195329203
0.5984900594 -0.1003156006 0.001042048209284567 0.0010175745789811185
0.6038115621 -0.1003156006 0.0011005586285947752 0.0010953754422103053
0.6091330051 -0.1003156006 0.0011549717030836667 0.0011728060570442569
0.6144544482 -0.1003156006 0.0012005368366990478 0.0012545849907470606
0.6197758913 -0.1003156006 0.0012387183061411255 0.0013349054158355155
0.625097394 -0.1003156006 0.0012713939193473044 0.0014127811407245961
0.6304188371 -0.1003156006 0.0012925219254553552 0.0014873524778755212
0.6357402802 -0.1003156006 0.0013129922304000597 0.001556846127499227
0.6410617828 -0.1003156006 0.0013255081535478574 0.0016212416952488
0.6463832259 -0.1003156006 0.0013350568273598259 0.0016808665577257513
0.651704669 -0.1003156006 0.0013426841829931333 0.0017347362515706818
0.6570261121 -0.1003156006 0.0013518748270813035 0.0017775848007976504
0.6623476148 -0.1003156006 0.0013616130993172524 0.0018120747434629365
0.6676690578 -0.1003156006 0.0013732043254531933 0.0018399881299754311
0.6729905009 -0.1003156006 0.0013908736790136191 0.0018567513012413693
0.678311944 -0.1003156006 0.0014140876049359684 0.0018688938653573385
0.6836334467 -0.1003156006 0.0014457371367720478 0.0018734200709491504
0.6889548898 -0.1003156006 0.0014875207359604029 0.001866277079961238
0.6942763329 -0.1003156006 0.0015425919361301828 0.0018569585196788441
0.6995977759 -0.1003156006 0.0016084784499773735 0.001841514084421923
0.7049192786 -0.1003156006 0.0016863935531873128 0.001821252301343268
0.7102407217 -0.1003156006 0.001781291727425223 0.0017955780120010392
0.7155621648 -0.1003156006 0.0018991953798818476 0.0017696382093275714
0.7208836079 -0.1003156006 0.0020377701969249845 0.0017473430946064695
0.7262051105 -0.1003156006 0.002196265157340234 0.0017264267870917558
0.7315265536 -0.1003156006 0.0023795945310072287 0.0017114965987479163
0.7368479967 -0.1003156006 0.0025975202295090523 0.0017074031945306096
0.7421694398 -0.1003156006 0.00284212932243301 0.001715259426273015
0.7474909425 -0.1003156006 0.0030970308264114707 0.0017451052206624408
0.7528123856 -0.1003156006 0.0033976507575064797 0.0017989200367587786
0.7581338286 -0.1003156006 0.0037263439576355095 0.0018776399620384404
-0.3008363545 -0.09699654579 -0.0006931782260968838 0.0002560366201293102
-0.2955148816 -0.09699654579 -0.0006859407390830981 0.000251809407602744
-0.2901934385 -0.09699654579 -0.0006901921917411076 0.00024675803100724985
-0.2848719656 -0.09699654579 -0.0007070117480126864 0.0002686207356872116
-0.2795505226 -0.09699654579 -0.0007193752758226853 0.00029556436946541036
-0.2742290497 -0.09699654579 -0.000721641068880098 0.0003393388446808178
-0.2689076066 -0.09699654579 -0.0006902886417669206 0.0004384086383410013
-0.2635861337 -0.09699654579 -0.0006612756240263337 0.0005192140005065233
-0.2582646906 -0.09699654579 -0.000652512544451645 0.0005609374123243056
-0.2529432178 -0.09699654579 -0.0006657503019281613 0.00060649572337383
-0.2476217598 -0.09699654579 -0.0006633015827307762 0.000668854469489841
-0.2423003018 -0.09699654579 -0.0006837205147331201 0.0007060505148649695
-0.2369788438 -0.09699654579 -0.0007298999649891012 0.0006735988246268032
-0.2316573858 -0.09699654579 -0.0008179183548675521 0.0005962299932301994
-0.2263359278 -0.09699654579 -0.0009453576067007523 0.0005119747859480314
-0.2210144699 -0.09699654579 -0.0009974639162519613 0.0004824987783848095
-0.2156930119 -0.09699654579 -0.0010312661563777437 0.00046293920837653634
-0.2103715539 -0.09699654579 -0.0010829285896454758 0.0004814542912338823
-0.2050500959 -0.09699654579 -0.001111023600779816 0.0004862983580233775
-0.1997286379 -0.09699654579 -0.0011157904690659805 0.00046860802286544654
-0.19440718 -0.09699654579 -0.0011198954171471524 0.00043897289481185014
-0.189085722 -0.09699654579 -0.001122457075578792 0.000365531527953666
-0.183764264 -0.09699654579 -0.001133211042484517 0.0002962800386982972
-0.178442806 -0.09699654579 -0.0011417325240563512 0.00023214751758415564
-0.173121348 -0.09699654579 -0.001119601272201732 0.0001790093179314854
-0.16779989 -0.09699654579 -0.0010900707405500172 0.00012658547208166572
-0.1624784321 -0.09699654579 -0.0010770187268144033 7.016256080386798e-05
-0.1571569741 -0.09699654579 -0.0010503005469721096 2.769766509145055e-05
-0.1518355161 -0.09699654579 -0.0010261715406292163 -6.007377208034017e-06
-0.1465140581 -0.09699654579 -0.000996157664705486 -3.923000043080586e-05
-0.1411926001 -0.09699654579 -0.0009654533310137134 -6.65058830149732e-05
-0.1358711421 -0.09699654579 -0.0009340124947620566 -6.78423841199015e-05
-0.1305496842 -0.09699654579 -0.0009032600941057576 -6.58229685244955e-05
-0.1252282262 -0.09699654579 -0.0008832646661725956 -6.312922750923938e-05
-0.1199067682 -0.09699654579 -0.0008879365894980298 -4.4739436571947585e-05
-0.1145853102 -0.09699654579 -0.0008972679141422811 -2.4295239416305405e-05
-0.1092638522 -0.09699654579 -0.000907138680228183 -2.9495995943730703e-06
-0.1039423943 -0.09699654579 -0.0009173565309455099 1.9062981933886176e-05
-0.09862093627 -0.09699654579 -0.0009209869371074302 2.9689632894292326e-05
-0.09329947084 -0.09699654579 -0.0009227753309730172 3.9592232475839e-05
-0.08797801286 -0.09699654579 -0.0009233629541052022 4.8666442186071875e-05
-0.08265655488 -0.09699654579 -0.0009253479303030894 5.8197015089805204e-05
-0.0773350969 -0.09699654579 -0.0009297812912376206 6.831894697981163e-05
-0.07201363891 -0.09699654579 -0.0009350411730607856 7.892307851581136e-05
-0.06669218093 -0.09699654579 -0.0009408156079118873 8.964914339598548e-05
-0.06137072667 -0.09699654579 -0.0009492835887155783 0.00010145891615812941
-0.05604926869 -0.09699654579 -0.0009596203730027891 0.00011302011368328814
-0.05072781071 -0.09699654579 -0.0009726476854776889 0.00012482969912257525
-0.045406349 -0.09699654579 -0.0009842434018581423 0.00013666403407638203
-0.04008489102 -0.09699654579 -0.0009962894417988929 0.00014787575829147383
-0.03476343304 -0.09699654579 -0.0010062880104047473 0.00015686534753561455
-0.02944197692 -0.09699654579 -0.0010128304378435914 0.00016265184184539782
-0.02412051894 -0.09699654579 -0.0010201470269497015 0.00016848395793165425
-0.01879905909 -0.09699654579 -0.0010279403027653585 0.0001742868931676041
-0.01347760204 -0.09699654579 -0.0010338052819541138 0.00018008896064426082
-0.00815614406 -0.09699654579 -0.001040336941171287 0.00018665212800656893
-0.00283468538 -0.09699654579 -0.0010467807215755018 0.00019377323748144619
0.002486772602 -0.09699654579 -0.0010519416968858138 0.0002008142126866329
0.007808230817 -0.09699654579 -0.0010570231914951312 0.00020789602161648356
0.0131296888 -0.09699654579 -0.001063120503607922 0.00021498017440605154
0.01845114678 -0.09699654579 -0.0010674700441703454 0.00021499826192932859
0.02377260476 -0.09699654579 -0.0010712048889645145 0.00020992731473868748
0.02909406275 -0.09699654579 -0.0010728632387826524 0.0002042345692940764
0.03441552073 -0.09699654579 -0.0010754092606981365 0.00019848832497393464
0.03973697871 -0.09699654579 -0.001079231131489521 0.00019335040376764262
0.04505843669 -0.09699654579 -0.001074647573659345 0.0001870327432677857
0.05037989467 -0.09699654579 -0.0010583989361880963 0.0001788309414956229
0.05570135266 -0.09699654579 -0.0010412920298485462 0.00017041616580323765
0.06102281436 -0.09699654579 -0.0010216827093428638 0.00016181234045638777
0.06634426862 -0.09699654579 -0.0010068042669593993 0.00015366322151284158
0.0716657266 -0.09699654579 -0.0009915470070910098 0.00014552225231237337
0.07698718458 -0.09699654579 -0.0009696851692377167 0.00015946370621477778
0.08230864257 -0.09699654579 -0.0009473870750995071 0.0001745003111649051
0.08763010055 -0.09699654579 -0.0009272047509079873 0.0001891863163441912
0.09295155853 -0.09699654579 -0.0009059622899531905 0.00020369668828953448
0.09827301651 -0.09699654579 -0.0008857086348520367 0.0002183491298709705
0.1035944745 -0.09699654579 -0.000876983558840201 0.0002316484832066593
0.1089159325 -0.09699654579 -0.0008911060727525864 0.00024196922308957706
0.1142373979 -0.09699654579 -0.0009057943033128928 0.00025063542883562145
0.1195588559 -0.09699654579 -0.000922033304199847 0.0002578535211578035
0.1248803139 -0.09699654579 -0.0009359881798409673 0.00026507661802884717
0.1302017719 -0.09699654579 -0.0009507534255091673 0.0002735777908150407
0.1355232298 -0.09699654579 -0.0009664772168552909 0.00026149268271889736
0.1408446878 -0.09699654579 -0.0009832450962355356 0.00023746189145689312
0.1461661458 -0.09699654579 -0.0009998586854190862 0.00021357264782338774
0.1514876038 -0.09699654579 -0.001012723099485739 0.00019010757376052587
0.1568090618 -0.09699654579 -0.0010259147196529231 0.00016667500420043207
0.1621305197 -0.09699654579 -0.0010378072607157922 0.0001433593049351874
0.1674519777 -0.09699654579 -0.0010100762609937784 0.00010620258978605293
0.1727734357 -0.09699654579 -0.0009676318711208534 6.362899182928627e-05
0.1780948937 -0.09699654579 -0.0009242449917959176 1.7118106724949155e-05
0.1834163517 -0.09699654579 -0.0008807470408099907 -2.8025133720150028e-05
0.1887378097 -0.09699654579 -0.0008405003586100264 -6.522092218237394e-05
0.1940592676 -0.09699654579 -0.0008014345838497654 -0.00010238482506252599
0.1993807256 -0.09699654579 -0.0007147808967729903 -9.345089552272455e-05
0.2047021836 -0.09699654579 -0.0006143571626011992 -7.231537371659824e-05
0.2100236416 -0.09699654579 -0.0005245553436587131 -4.694730665135126e-05
0.2153450996 -0.09699654579 -0.0004360026688337665 -2.097064255749141e-05
0.2206665576 -0.09699654579 -0.0003477469798192697 5.018771573778401e-06
0.2259880155 -0.09699654579 -0.00025818136001398825 3.081474854834103e-05
0.2313094735 -0.09699654579 -0.00020252505186579232 0.00014318954623831692
0.2366309315 -0.09699654579 -0.00015404760850188688 0.0002738072722431872
0.2419523895 -0.09699654579 -0.00010524466924984495 0.00040438702418672405
0.2472738475 -0.09699654579 -5.74103561839707e-05 0.0005349832855483803
0.2525953054 -0.09699654579 -1.247011480263858e-05 0.000659541623532431
0.2579167783 -0.09699654579 2.880397268270567e-05 0.0007787485564016767
0.2632382214 -0.09699654579 -5.358331204747745e-05 0.0008855187374590936
0.2685596943 -0.09699654579 -0.00016122580485146467 0.0009896360697865022
0.2738811374 -0.09699654579 -0.0002649792745758769 0.0010890803001302218
0.2792026103 -0.09699654579 -0.00036287580663779657 0.0011820737576857707
0.2845240533 -0.09699654579 -0.00046201120220428686 0.0012766886439695118
0.2898455262 -0.09699654579 -0.0005641247097592084 0.0013737554118587107
0.2951669693 -0.09699654579 -0.000705043456497831 0.0013326761285518173
0.3004884422 -0.09699654579 -0.0008399632868625316 0.0012800980216770969
0.3058098853 -0.09699654579 -0.000972904868822347 0.0012288125521405767
0.3111313581 -0.09699654579 -0.0011053469336737129 0.001177514424744498
0.3164528012 -0.09699654579 -0.0012319813004654932 0.0011282050704600965
0.3217742741 -0.09699654579 -0.0013417145961183634 0.0010779239357575612
0.3270957172 -0.09699654579 -0.001346229043656906 0.000940663185329531
0.3324171901 -0.09699654579 -0.0013498517872331684 0.000803354065976272
0.3377386332 -0.09699654579 -0.0013514687447019318 0.000671055214560045
0.343060106 -0.09699654579 -0.0013531856983045815 0.0005435606671875558
0.3483815491 -0.09699654579 -0.0013546660878022282 0.00041571475438721385
0.353703022 -0.09699654579 -0.0013071115855533115 0.000300747706723675
0.3590244651 -0.09699654579 -0.0011742845115411478 0.0002143023334429136
0.364345938 -0.09699654579 -0.0010495708145837432 0.00013490713455031967
0.369667381 -0.09699654579 -0.0009234731522550309 5.5457979730046394e-05
0.3749888539 -0.09699654579 -0.0008018106728755573 -2.5400327455359036e-05
0.380310297 -0.09699654579 -0.0006832073575519446 -0.00010167753735450122
0.3856317699 -0.09699654579 -0.0005415338205908158 -8.720583932923042e-05
0.390953213 -0.09699654579 -0.00038890188973789364 -4.992466738155102e-05
0.3962746859 -0.09699654579 -0.0002319337357381353 -1.1682947945843145e-05
0.4015961289 -0.09699654579 -8.385382079845709e-05 2.4880568729709732e-05
0.4069176018 -0.09699654579 5.8198706130315055e-05 6.018186544141719e-05
0.4122390449 -0.09699654579 0.00016907548852830999 0.00013363162778718099
0.4175605178 -0.09699654579 0.00024249035158473855 0.00025679160928175913
0.4228819609 -0.09699654579 0.0003112562509476521 0.0003704256853515109
0.4282034338 -0.09699654579 0.00037771049191857083 0.0004799011232814124
0.4335248768 -0.09699654579 0.00044456738459115156 0.0005904642736278911
0.4388463497 -0.09699654579 0.0004815214806657269 0.000704571650628422
0.4441677928 -0.09699654579 0.00044858843634463955 0.0008025825855346607
0.4494892657 -0.09699654579 0.0004148643841476696 0.000899903594606516
0.4548107088 -0.09699654579 0.0003801221124800247 0.0009973125326564066
0.4601321816 -0.09699654579 0.0003456671010089516 0.0010932261534904665
0.4654536247 -0.09699654579 0.0002993744579806233 0.0011515521078611865
0.4707750976 -0.09699654579 0.0002258555696557734 0.001169675211660148
0.4760965407 -0.09699654579 0.00014607009807495047 0.0011878735694780924
0.4814180136 -0.09699654579 7.163874059562757e-05 0.001206018347909664
0.4867394567 -0.09699654579 5.349593796376728e-06 0.0012241643397866517
0.4920609295 -0.09699654579 -3.7871416240274734e-05 0.0011869525707331715
0.4973823726 -0.09699654579 -7.455887575961049e-05 0.001135394766307007
0.5027038455 -0.09699654579 -0.00010705134080361114 0.0010880006862124235
0.5080252886 -0.09699654579 -0.0001418304811481092 0.0010395836812227485
0.5133467317 -0.09699654579 -0.00014350575349852016 0.0009811418910466274
0.5186682343 -0.09699654579 -0.000110950276877393 0.0009131432105357833
0.5239896774 -0.09699654579 -7.874821030397176e-05 0.0008550129623182081
0.5293111205 -0.09699654579 -4.622373129147724e-05 0.0007918345829195494
0.5346325636 -0.09699654579 1.2689126842224138e-05 0.0007373548350581765
0.5399540663 -0.09699654579 9.771668526389543e-05 0.000703769990935792
0.5452755094 -0.09699654579 0.0001803313536165373 0.0006726782110009946
0.5505969524 -0.09699654579 0.00026614657492369327 0.0006389164220624025
0.5559183955 -0.09699654579 0.0003683396688312302 0.0006367495916025636
0.5612398982 -0.09699654579 0.00046727515828437385 0.0006474259578821593
0.5665613413 -0.09699654579 0.0005665371046168073 0.0006581270066497173
0.5718827844 -0.09699654579 0.0006716042941671444 0.0006833432530833677
0.5772042274 -0.09699654579 0.0007641944362598215 0.0007297813113743664
0.5825257301 -0.09699654579 0.0008571385713279295 0.0007760919971255831
0.5878471732 -0.09699654579 0.0009474789421654697 0.0008351239872154533
0.5931686163 -0.09699654579 0.0010208634480752242 0.0009056493159076367
0.5984900594 -0.09699654579 0.001095656621592364 0.0009799943185245005
0.6038115621 -0.09699654579 0.0011555773318315484 0.001059376067599622
0.6091330051 -0.09699654579 0.0012072399962285562 0.00114581970263652
0.6144544482 -0.09699654579 0.0012558659579149933 0.0012285276224626436
0.6197758913 -0.09699654579 0.0012883056546048699 0.0013128219666602567
0.625097394 -0.09699654579 0.0013185800055089117 0.001395669649801121
0.6304188371 -0.09699654579 0.0013396622806214839 0.0014728327454000957
0.6357402802 -0.09699654579 0.001352579947889933 0.0015494031566134997
0.6410617828 -0.09699654579 0.0013624734879565136 0.001617677335736308
0.6463832259 -0.09699654579 0.0013676478899489579 0.001677363074855043
0.651704669 -0.09699654579 0.001369379349980074 0.001730822245454782
0.6570261121 -0.09699654579 0.0013738030040603766 0.001771050906325527
0.6623476148 -0.09699654579 0.001378031920364521 0.001805426559704034
0.6676690578 -0.09699654579 0.001386251522299252 0.0018307304637860868
0.6729905009 -0.09699654579 0.0013974868810354758 0.0018467630840953693
0.678311944 -0.09699654579 0.0014130387103175024 0.0018534510315557813
0.6836334467 -0.09699654579 0.0014375120242149156 0.0018527791830893307
0.6889548898 -0.09699654579 0.001475316191259552 0.0018425412321436876
0.6942763329 -0.09699654579 0.0015250185636976395 0.0018248132162961386
0.6995977759 -0.09699654579 0.0015868605810756477 0.0017979280492045715
0.7049192786 -0.09699654579 0.0016621158715553026 0.001767682573137409
0.7102407217 -0.09699654579 0.0017542451015728337 0.0017330545593185864
0.7155621648 -0.09699654579 0.0018734494521685315 0.0016950890351161057
0.7208836079 -0.09699654579 0.002014879628610396 0.0016534242875261434
0.7262051105 -0.09699654579 0.002179982960458277 0.00161625082251874
0.7315265536 -0.09699654579 0.002365748763922079 0.0015855713259751321
0.7368479967 -0.09699654579 0.0025844776861974838 0.001560938242465586
0.7421694398 -0.09699654579 0.0028359209750004723 0.001554124205581891
0.7474909425 -0.09699654579 0.0031161892720083274 0.0015613612978904157
0.7528123856 -0.09699654579 0.0034293843630471906 0.0015974286545763234
0.7581338286 -0.09699654579 0.003774468995894893 0.001664293043165192
-0.3008363545 -0.09367749095 -0.0006757873179913063 0.00027011074443388395
-0.2955148816 -0.09367749095 -0.0006739644908421124 0.0002616866843599923
-0.2901934385 -0.09367749095 -0.0006620301792309726 0.0002418243590775089
-0.2848719656 -0.09367749095 -0.000673280231101848 0.0002474862186537505
-0.2795505226 -0.09367749095 -0.0006843751066583382 0.00027416646691732273
-0.2742290497 -0.09367749095 -0.0006718510366537265 0.00033372130999254084
-0.2689076066 -0.09367749095 -0.000645306051220855 0.00041372488205647736
-0.2635861337 -0.09367749095 -0.000576603458152673 0.000502969826821469
-0.2582646906 -0.09367749095 -0.0005576745485174952 0.000555851989463279
-0.2529432178 -0.09367749095 -0.0005365673663687503 0.0005982226211772901
-0.2476217598 -0.09367749095 -0.0005344034077212809 0.0006655770412009803