VARIABLES = X,Y,phix,phiy
ZONE I=200,J=200,F=POINT 
-0.3008363545 -0.1003156006 0.0004338549296137336 0.001446530656215623
-0.2955148816 -0.1003156006 0.00045502015261439214 0.00145587290968611
-0.2901934385 -0.1003156006 0.000492468241371224 0.0014503223917761933
-0.2848719656 -0.1003156006 0.0005341280881915228 0.001450195507925241
-0.2795505226 -0.1003156006 0.0005789208096753469 0.0014660344309834225
-0.2742290497 -0.1003156006 0.000617994886515548 0.0014985425375050206
-0.2689076066 -0.1003156006 0.0006575291543596084 0.001555628733574951
-0.2635861337 -0.1003156006 0.0006245142816758487 0.001582753415363895
-0.2582646906 -0.1003156006 0.0005253461295763414 0.0015982426967487311
-0.2529432178 -0.1003156006 0.00038732956869445546 0.001607113977280819
-0.2476217598 -0.1003156006 0.00023676591088362067 0.001603315015621782
-0.2423003018 -0.1003156006 0.00014831563549787532 0.0015543793656722165
-0.2369788438 -0.1003156006 7.078861745124768e-05 0.001488347607954659
-0.2316573858 -0.1003156006 -1.0858423943564045e-05 0.001399395373054625
-0.2263359278 -0.1003156006 -9.646389730466842e-05 0.0013143966807110477
-0.2210144699 -0.1003156006 -7.498084624589488e-05 0.0012486388990128432
-0.2156930119 -0.1003156006 -3.99231467137869e-05 0.001178228175266169
-0.2103715539 -0.1003156006 -9.595615570520237e-06 0.0011088487811292244
-0.2050500959 -0.1003156006 -4.4137131481108344e-05 0.001060625767725231
-0.1997286379 -0.1003156006 -7.739931828927879e-05 0.0010140673041547773
-0.19440718 -0.1003156006 -0.00014383198282746682 0.0009678133978980815
-0.189085722 -0.1003156006 -0.00012257247142140017 0.000873654763858079
-0.183764264 -0.1003156006 -9.950890164299224e-05 0.0007619311738777812
-0.178442806 -0.1003156006 -7.462035433719075e-05 0.0006468467833203822
-0.173121348 -0.1003156006 -1.5801968408295713e-05 0.0005324468992773282
-0.16779989 -0.1003156006 4.5095422323919394e-05 0.0004178685875334064
-0.1624784321 -0.1003156006 0.00012138251847112734 0.0002871979749772316
-0.1571569741 -0.1003156006 0.00020329278409265348 0.00018710689760997336
-0.1518355161 -0.1003156006 0.00029307582893672916 9.567373069722506e-05
-0.1465140581 -0.1003156006 0.00038652877073803657 2.6591248413541605e-06
-0.1411926001 -0.1003156006 0.00048304428351558527 -7.483838728624577e-05
-0.1358711421 -0.1003156006 0.0005954029870137165 -0.00012550518547659975
-0.1305496842 -0.1003156006 0.0007069130965288096 -0.00017616409016300738
-0.1252282262 -0.1003156006 0.0008260112962188342 -0.00022005082924074308
-0.1199067682 -0.1003156006 0.0009224283707215212 -0.00023646938013131545
-0.1145853102 -0.1003156006 0.0010132865259400807 -0.0002479769604112276
-0.1092638522 -0.1003156006 0.0011086592662986896 -0.00025602101103666816
-0.1039423943 -0.1003156006 0.0012014839776049115 -0.0002629101366485658
-0.09862093627 -0.1003156006 0.0012789215930808907 -0.00025960471264010267
-0.09329947084 -0.1003156006 0.0013595197161004212 -0.00025620099624310065
-0.08797801286 -0.1003156006 0.0014410984796200462 -0.00025278637334216834
-0.08265655488 -0.1003156006 0.0015170010840000864 -0.00024757190700499577
-0.0773350969 -0.1003156006 0.0015775065338245018 -0.00023244141136482372
-0.07201363891 -0.1003156006 0.0016374416170202221 -0.00021721331030432987
-0.06669218093 -0.1003156006 0.0016970479318674766 -0.00020196923388252191
-0.06137072667 -0.1003156006 0.0017565729291159388 -0.00018423065883497214
-0.05604926869 -0.1003156006 0.0017863089810381343 -0.00016145146665077657
-0.05072781071 -0.1003156006 0.0018100940160574704 -0.00013926900391806812
-0.045406349 -0.1003156006 0.0018356024185028333 -0.00011779313828697355
-0.04008489102 -0.1003156006 0.0018587364356711532 -9.442160942410238e-05
-0.03476343304 -0.1003156006 0.001879595237563211 -7.38139920025083e-05
-0.02944197692 -0.1003156006 0.0018980942409241811 -6.165083723630103e-05
-0.02412051894 -0.1003156006 0.0019157745686089458 -4.92196266082651e-05
-0.01879905909 -0.1003156006 0.001933843744081335 -3.653528603255303e-05
-0.01347760204 -0.1003156006 0.0019518755543926904 -2.4117950688149284e-05
-0.00815614406 -0.1003156006 0.00196342282855663 -1.2693645569122152e-05
-0.00283468538 -0.1003156006 0.0019708717437975907 -2.9990879667174653e-06
0.002486772602 -0.1003156006 0.001975911656631698 7.864762775094235e-06
0.007808230817 -0.1003156006 0.0019818772142900782 1.8731564518775344e-05
0.0131296888 -0.1003156006 0.001988338408949474 2.8608246056912887e-05
0.01845114678 -0.1003156006 0.0019929145866737453 2.4669637452145184e-05
0.02377260476 -0.1003156006 0.001996547772838941 9.324983595116196e-06
0.02909406275 -0.1003156006 0.001997953212221455 -6.956600616138103e-06
0.03441552073 -0.1003156006 0.0019992164043294187 -2.3220203235197312e-05
0.03973697871 -0.1003156006 0.0020017187439394877 -3.870125329230244e-05
0.04505843669 -0.1003156006 0.0020137231263196304 -5.4151975163279916e-05
0.05037989467 -0.1003156006 0.0020446128919369383 -7.31001970260064e-05
0.05570135266 -0.1003156006 0.0020761253792511308 -9.356459455936351e-05
0.06102281436 -0.1003156006 0.002107402392860801 -0.00011463427233013475
0.06634426862 -0.1003156006 0.002138242463700672 -0.00013411335345931203
0.0716657266 -0.1003156006 0.0021687867433593418 -0.00015271777291827194
0.07698718458 -0.1003156006 0.0022185277810410488 -0.0001348673301368567
0.08230864257 -0.1003156006 0.0022707150777720045 -0.00011437006375251738
0.08763010055 -0.1003156006 0.0023250568177207273 -9.316660866006734e-05
0.09295155853 -0.1003156006 0.002376923271838517 -7.249233783906756e-05
0.09827301651 -0.1003156006 0.0024278693961423104 -5.224882451710987e-05
0.1035944745 -0.1003156006 0.002459377778325137 -1.8399855794768612e-05
0.1089159325 -0.1003156006 0.00245340949817473 4.2360841973445427e-05
0.1142373979 -0.1003156006 0.002447881359433949 0.00010309276050560827
0.1195588559 -0.1003156006 0.0024429379643192725 0.00015818926858457834
0.1248803139 -0.1003156006 0.002436956764379962 0.00021548551878360235
0.1302017719 -0.1003156006 0.0024308737020388694 0.00027387046553461694
0.1355232298 -0.1003156006 0.0023883602710176284 0.00030480043535433037
0.1408446878 -0.1003156006 0.002319160912556242 0.00031465732512192117
0.1461661458 -0.1003156006 0.00225335339911956 0.00032375976745965075
0.1514876038 -0.1003156006 0.0021880320357842544 0.00033280023587206
0.1568090618 -0.1003156006 0.0021228304956337684 0.00034188719349902683
0.1621305197 -0.1003156006 0.0020566393745941793 0.000350969133108815
0.1674519777 -0.1003156006 0.00200646113923162 0.000311374249871293
0.1727734357 -0.1003156006 0.001960965726512105 0.00025017349455824545
0.1780948937 -0.1003156006 0.0019161093075163308 0.00018901861778284766
0.1834163517 -0.1003156006 0.0018724376873187271 0.00012786905183979436
0.1887378097 -0.1003156006 0.0018288169073816386 6.83591515654135e-05
0.1940592676 -0.1003156006 0.001789283728707763 1.1720139345616966e-05
0.1993807256 -0.1003156006 0.0017846741630304721 -4.802135386384759e-05
0.2047021836 -0.1003156006 0.001790064363692367 -0.00010865948544129802
0.2100236416 -0.1003156006 0.0017957577223040298 -0.00016926986893104563
0.2153450996 -0.1003156006 0.0018023670959840133 -0.0002262862955720213
0.2206665576 -0.1003156006 0.0018082796158438836 -0.00028458992877354323
0.2259880155 -0.1003156006 0.0018150747146200396 -0.0003428081188962426
0.2313094735 -0.1003156006 0.001845501473421538 -0.0003912495923338346
0.2366309315 -0.1003156006 0.0018828628457585991 -0.00043469564931404104
0.2419523895 -0.1003156006 0.0019200455427151458 -0.00047737358652110394
0.2472738475 -0.1003156006 0.001955909663137421 -0.0005200901528891101
0.2525953054 -0.1003156006 0.001989923846776757 -0.0005636268396744052
0.2579167783 -0.1003156006 0.0020241314277915207 -0.0006051614409506902
0.2632382214 -0.1003156006 0.002076770017957092 -0.0006161922245816196
0.2685596943 -0.1003156006 0.0021350257269969045 -0.0006197284831094154
0.2738811374 -0.1003156006 0.002194560351521719 -0.0006236995010538281
0.2792026103 -0.1003156006 0.002254802430576238 -0.0006272205786891279
0.2845240533 -0.1003156006 0.0023086231748596043 -0.0006306702620191874
0.2898455262 -0.1003156006 0.002364224703993606 -0.0006341428443018438
0.2951669693 -0.1003156006 0.0023908391114836427 -0.0005795275770202606
0.3004884422 -0.1003156006 0.0024132310638580318 -0.0005162464134675261
0.3058098853 -0.1003156006 0.002432050507221701 -0.0004604811703800417
0.3111313581 -0.1003156006 0.0024519103360473938 -0.0004047554002635123
0.3164528012 -0.1003156006 0.00247061934975074 -0.00034896425299132684
0.3217742741 -0.1003156006 0.0024867649322110877 -0.0002931169088331589
0.3270957172 -0.1003156006 0.0024258799499001964 -0.0002483975355030623
0.3324171901 -0.1003156006 0.0023627348607825394 -0.00020370817531873933
0.3377386332 -0.1003156006 0.00230024715748835 -0.00015899277711425738
0.343060106 -0.1003156006 0.0022378833545896614 -0.00011439261657700264
0.3483815491 -0.1003156006 0.0021805534566152716 -7.542763425646179e-05
0.353703022 -0.1003156006 0.0021167210307949428 -5.6193207708776836e-05
0.3590244651 -0.1003156006 0.002034472771988746 -8.061990393392192e-05
0.364345938 -0.1003156006 0.0019530848984415793 -0.0001050605694478112
0.369667381 -0.1003156006 0.0018779020655638767 -0.000127640202830721
0.3749888539 -0.1003156006 0.0018013392167537132 -0.00015055156947348686
0.380310297 -0.1003156006 0.0017229605917845662 -0.00017388022019021557
0.3856317699 -0.1003156006 0.0016688569484520535 -0.0002187174973388183
0.390953213 -0.1003156006 0.0016238483020869852 -0.0002676336588901675
0.3962746859 -0.1003156006 0.0015786893341986302 -0.00031625224642610635
0.4015961289 -0.1003156006 0.0015329203389554456 -0.00036455602713601466
0.4069176018 -0.1003156006 0.0014849302570328527 -0.0004130091526505911
0.4122390449 -0.1003156006 0.0014465718227474876 -0.0004581217810066031
0.4175605178 -0.1003156006 0.0014202853231195384 -0.0005031232885876876
0.4228819609 -0.1003156006 0.0013927702062323463 -0.0005481168032220173
0.4282034338 -0.1003156006 0.001365174116028459 -0.00059358613367505
0.4335248768 -0.1003156006 0.0013379199505389478 -0.0006369518452061649
0.4388463497 -0.1003156006 0.0013121089621924101 -0.0006794500885838395
0.4441677928 -0.1003156006 0.0012912221054516854 -0.0007204067775607129
0.4494892657 -0.1003156006 0.0012698117857221163 -0.0007612498512788403
0.4548107088 -0.1003156006 0.0012483868949146085 -0.0008011119320760618
0.4601321816 -0.1003156006 0.0012257510678739707 -0.0008416327257531651
0.4654536247 -0.1003156006 0.0012060936876623226 -0.000875059148359835
0.4707750976 -0.1003156006 0.0011899489717382757 -0.0008989721455052374
0.4760965407 -0.1003156006 0.0011702769612546412 -0.0009240562376569124
0.4814180136 -0.1003156006 0.0011504771509796613 -0.000949240728477343
0.4867394567 -0.1003156006 0.001131789411107403 -0.0009742219986155022
0.4920609295 -0.1003156006 0.001096016998076497 -0.00097998635127429
0.4973823726 -0.1003156006 0.0010556615635607422 -0.0009831553196979832
0.5027038455 -0.1003156006 0.001016800536811249 -0.0009864858117420252
0.5080252886 -0.1003156006 0.0009769872409464097 -0.0009895609750694622
0.5133467317 -0.1003156006 0.0009191529439618944 -0.0010001821235635566
0.5186682343 -0.1003156006 0.0008338437295233083 -0.0010084776776298114
0.5239896774 -0.1003156006 0.0007502784630561388 -0.0010165400373533984
0.5293111205 -0.1003156006 0.000665956831460768 -0.0010262934901205775
0.5346325636 -0.1003156006 0.0005734946799220221 -0.0010550412424537347
0.5399540663 -0.1003156006 0.00045725864812868364 -0.0010987737248895715
0.5452755094 -0.1003156006 0.00033799078088654367 -0.0011414081053321185
0.5505969524 -0.1003156006 0.0002257706672943061 -0.001186187820123695
0.5559183955 -0.1003156006 0.00011332640673899273 -0.0012592778855403438
0.5612398982 -0.1003156006 -1.0008641861839457e-05 -0.001343197057309345
0.5665613413 -0.1003156006 -0.0001329626064267104 -0.001426789595705644
0.5718827844 -0.1003156006 -0.0002414110557348046 -0.0015197913065593041
0.5772042274 -0.1003156006 -0.0003492310201890257 -0.0016336053879271188
0.5825257301 -0.1003156006 -0.0004583276629537264 -0.0017476921212426577
0.5878471732 -0.1003156006 -0.0005576117139846311 -0.0018663705500788499
0.5931686163 -0.1003156006 -0.0006502354038346915 -0.001995235033186657
0.5984900594 -0.1003156006 -0.0007437017612770533 -0.0021237429994170665
0.6038115621 -0.1003156006 -0.0008286870235280672 -0.0022591494425358164
0.6091330051 -0.1003156006 -0.000911376694641767 -0.0023941701328635094
0.6144544482 -0.1003156006 -0.0009906233373144883 -0.0025315059456131436
0.6197758913 -0.1003156006 -0.0010672833771099316 -0.0026684179971868853
0.625097394 -0.1003156006 -0.0011441761300895429 -0.0028043342996601347
0.6304188371 -0.1003156006 -0.0012229856833768675 -0.0029382559606501977
0.6357402802 -0.1003156006 -0.0013043375269596964 -0.003072686996539959
0.6410617828 -0.1003156006 -0.0013874867976705505 -0.0032050006386847114
0.6463832259 -0.1003156006 -0.001474539346437833 -0.0033359209232862535
0.651704669 -0.1003156006 -0.0015672982051007005 -0.003465229147175891
0.6570261121 -0.1003156006 -0.0016699718415847534 -0.0035984327920078802
0.6623476148 -0.1003156006 -0.0017809105371853588 -0.003731095877145394
0.6676690578 -0.1003156006 -0.0018992943557303572 -0.0038649755108526615
0.6729905009 -0.1003156006 -0.0020356079228235915 -0.004007123494398479
0.678311944 -0.1003156006 -0.002180192244361343 -0.00415741635295719
0.6836334467 -0.1003156006 -0.002336556751562344 -0.004313203546647332
0.6889548898 -0.1003156006 -0.0025075976856415074 -0.004476478237327698
0.6942763329 -0.1003156006 -0.002693985360662552 -0.004657209570044478
0.6995977759 -0.1003156006 -0.0028947476700141575 -0.004847806959925508
0.7049192786 -0.1003156006 -0.003107123458884352 -0.005054041633827565
0.7102407217 -0.1003156006 -0.0033358588122435863 -0.005275829845926964
0.7155621648 -0.1003156006 -0.003584631371479138 -0.005524610587595553
0.7208836079 -0.1003156006 -0.0038454990882279792 -0.005797765725706953
0.7262051105 -0.1003156006 -0.004121191253482456 -0.006092405961031535
0.7315265536 -0.1003156006 -0.004414391378926743 -0.006420683194301712
0.7368479967 -0.1003156006 -0.004729899588901413 -0.006790428992040683
0.7421694398 -0.1003156006 -0.005063962585508704 -0.007196770071816761
0.7474909425 -0.1003156006 -0.005388209320337224 -0.00763583922593208
0.7528123856 -0.1003156006 -0.005747425536091561 -0.008139747994951246
0.7581338286 -0.1003156006 -0.006117413730780801 -0.008694750394935372
-0.3008363545 -0.09699654579 0.0004400729234636012 0.0014287454069955112
-0.2955148816 -0.09699654579 0.00045261195693113953 0.0014319272556431505
-0.2901934385 -0.09699654579 0.0004984523216650558 0.0014380495915238389
-0.2848719656 -0.09699654579 0.0005425911220946172 0.0014446773747675218
-0.2795505226 -0.09699654579 0.0005910452925457656 0.0014563780923218584
-0.2742290497 -0.09699654579 0.0006361004510988605 0.001491555573615367
-0.2689076066 -0.09699654579 0.0006702522952795153 0.0015632302702195153
-0.2635861337 -0.09699654579 0.0006885107124413443 0.0016280744320829109
-0.2582646906 -0.09699654579 0.000605051072875796 0.0016496454919971554
-0.2529432178 -0.09699654579 0.0004737649020627257 0.0016493663517466043
-0.2476217598 -0.09699654579 0.00029785857832390577 0.0016271945751088865
-0.2423003018 -0.09699654579 0.00015258506792334 0.0015806420344604342
-0.2369788438 -0.09699654579 9.566330729796654e-05 0.001491651595052736
-0.2316573858 -0.09699654579 -6.433690933849297e-06 0.001400917214934251
-0.2263359278 -0.09699654579 -9.601709340179559e-05 0.001306486141372094
-0.2210144699 -0.09699654579 -6.55410117445317e-05 0.0012320719513076762
-0.2156930119 -0.09699654579 -3.396887100758635e-05 0.0011681592548347345
-0.2103715539 -0.09699654579 1.7451446362155235e-05 0.0011179799337629728
-0.2050500959 -0.09699654579 8.423568581407978e-06 0.0010769180802170696
-0.1997286379 -0.09699654579 -5.882402869599809e-05 0.0010307247728718139
-0.19440718 -0.09699654579 -0.00013385126612116752 0.0009795214801495203
-0.189085722 -0.09699654579 -0.0001294689671592404 0.0008717525380270554
-0.183764264 -0.09699654579 -0.0001086411034155636 0.0007508239032931618
-0.178442806 -0.09699654579 -9.294882607843566e-05 0.0006402830348665253
-0.173121348 -0.09699654579 -3.871796372600367e-05 0.0005229141234753021
-0.16779989 -0.09699654579 4.425733410687152e-05 0.00038433306217571715
-0.1624784321 -0.09699654579 0.00012273850842756728 0.0002324602447782995
-0.1571569741 -0.09699654579 0.00021117030668601014 0.00011212332700853598
-0.1518355161 -0.09699654579 0.0003023508120190397 1.2469975799655607e-05
-0.1465140581 -0.09699654579 0.00039648471391640837 -8.737666946776392e-05
-0.1411926001 -0.09699654579 0.0004987463431566553 -0.00017093674480762888
-0.1358711421 -0.09699654579 0.0006191461919924191 -0.0002135559665623848
-0.1305496842 -0.09699654579 0.0007451266060108575 -0.00025201531970936154
-0.1252282262 -0.09699654579 0.0008620688985186523 -0.000288499112012868
-0.1199067682 -0.09699654579 0.0009576754448880304 -0.00030129012937336696
-0.1145853102 -0.09699654579 0.0010454889366323117 -0.00030794479350070676
-0.1092638522 -0.09699654579 0.0011341337152840282 -0.0003138051573313972
-0.1039423943 -0.09699654579 0.001225095878238315 -0.00031497230982083647
-0.09862093627 -0.09699654579 0.0013006260791181782 -0.00031061770836015516
-0.09329947084 -0.09699654579 0.0013784020707146708 -0.0003054047969847966
-0.08797801286 -0.09699654579 0.0014582454962935555 -0.00029925961087173125
-0.08265655488 -0.09699654579 0.0015354714248692906 -0.00029247335974233257
-0.0773350969 -0.09699654579 0.0015937880581370525 -0.000274272816882524
-0.07201363891 -0.09699654579 0.0016532462017463637 -0.0002538012239015157
-0.06669218093 -0.09699654579 0.0017107070677991167 -0.0002332678389719009
-0.06137072667 -0.09699654579 0.001761663910947133 -0.0002124296752472328
-0.05604926869 -0.09699654579 0.0017830122931579895 -0.00018544425923597348
-0.05072781071 -0.09699654579 0.0017986515621099615 -0.00016023007601724383
-0.045406349 -0.09699654579 0.0018149471802247506 -0.0001350303419156172
-0.04008489102 -0.09699654579 0.0018292371720152226 -0.00010848631431117847
-0.03476343304 -0.09699654579 0.0018441723276812598 -8.470535294565791e-05
-0.02944197692 -0.09699654579 0.00185925421497857 -7.182708031238228e-05
-0.02412051894 -0.09699654579 0.0018753753910583488 -5.895012843051688e-05
-0.01879905909 -0.09699654579 0.0018911108096066915 -4.608818945003212e-05
-0.01347760204 -0.09699654579 0.0019083532561522617 -3.333766136934837e-05
-0.00815614406 -0.09699654579 0.0019176010057219595 -2.0491557144546313e-05
-0.00283468538 -0.09699654579 0.001922128547489496 -8.531606255339901e-06
0.002486772602 -0.09699654579 0.0019272005467401796 3.9846729931651e-06
0.007808230817 -0.09699654579 0.001931701170326774 1.654304238467946e-05
0.0131296888 -0.09699654579 0.0019366785027515238 2.877488522842527e-05
0.01845114678 -0.09699654579 0.0019381433402429766 2.4286729923166733e-05
0.02377260476 -0.09699654579 0.0019398455668994442 6.692816522569755e-06
0.02909406275 -0.09699654579 0.0019404867426552272 -1.1492543736809209e-05
0.03441552073 -0.09699654579 0.0019409989950219038 -2.9888222906682627e-05
0.03973697871 -0.09699654579 0.0019418115001976096 -4.742202249142459e-05
0.04505843669 -0.09699654579 0.0019536214343108572 -6.611216577918604e-05
0.05037989467 -0.09699654579 0.00198872788810414 -8.966946064268709e-05
0.05570135266 -0.09699654579 0.0020239408144068272 -0.00011339755609869528
0.06102281436 -0.09699654579 0.0020609417180091063 -0.00013851507104777885
0.06634426862 -0.09699654579 0.002095801532318411 -0.0001616903464090301
0.0716657266 -0.09699654579 0.00212989710834367 -0.00018490044588782378
0.07698718458 -0.09699654579 0.0021886142728196924 -0.00016438262123822286
0.08230864257 -0.09699654579 0.002251024162373567 -0.0001415311888454034
0.08763010055 -0.09699654579 0.002310230082432659 -0.00011890807113428108
0.09295155853 -0.09699654579 0.00236979534703297 -9.651577045505939e-05
0.09827301651 -0.09699654579 0.002429713373704199 -7.409511491414238e-05
0.1035944745 -0.09699654579 0.0024667634983267057 -3.455726123500425e-05
0.1089159325 -0.09699654579 0.0024608143519872522 3.583771273722285e-05
0.1142373979 -0.09699654579 0.00245490937116102 0.00010318837211363295
0.1195588559 -0.09699654579 0.0024492367375344563 0.0001678284105618999
0.1248803139 -0.09699654579 0.002442731355086705 0.00023247505022357546
0.1302017719 -0.09699654579 0.0024371103883855305 0.0002995363095596849
0.1355232298 -0.09699654579 0.0023860980701575466 0.00033412027458636827
0.1408446878 -0.09699654579 0.002312421320001239 0.00034450784207142027
0.1461661458 -0.09699654579 0.002237782702447117 0.0003547897565180429
0.1514876038 -0.09699654579 0.0021637850594180778 0.00036503973769149193
0.1568090618 -0.09699654579 0.0020905363199400255 0.00037532348541770077
0.1621305197 -0.09699654579 0.0020197388203273257 0.0003855251826791865
0.1674519777 -0.09699654579 0.0019666155641397316 0.0003402500109310186
0.1727734357 -0.09699654579 0.0019201785895519127 0.00027486684166802593
0.1780948937 -0.09699654579 0.0018715807679040228 0.00020749541644229485
0.1834163517 -0.09699654579 0.0018231430224383014 0.00014086704499013906
0.1887378097 -0.09699654579 0.0017795490327560813 7.819542993575732e-05
0.1940592676 -0.09699654579 0.001735138400060265 1.559636051142944e-05
0.1993807256 -0.09699654579 0.0017323117619638614 -4.8135684793125714e-05
0.2047021836 -0.09699654579 0.0017404844638967219 -0.0001120345448664331
0.2100236416 -0.09699654579 0.0017481981243160606 -0.0001742893603375346
0.2153450996 -0.09699654579 0.0017559999120934928 -0.0002363133500559809
0.2206665576 -0.09699654579 0.0017634427481321528 -0.00029828645869626525
0.2259880155 -0.09699654579 0.001771439863770462 -0.00036032906210816377
0.2313094735 -0.09699654579 0.0018050247156755428 -0.00041053878354349284
0.2366309315 -0.09699654579 0.0018440023350550507 -0.000457999887895517
0.2419523895 -0.09699654579 0.0018832743747903727 -0.0005054381165808079
0.2472738475 -0.09699654579 0.0019215743321542092 -0.0005528685387898162
0.2525953054 -0.09699654579 0.0019599180490353983 -0.0005982266925004541
0.2579167783 -0.09699654579 0.0019963211580604754 -0.0006422971215160895
0.2632382214 -0.09699654579 0.002059849082340392 -0.0006526982252118078
0.2685596943 -0.09699654579 0.0021300348270947116 -0.0006565019786498773
0.2738811374 -0.09699654579 0.002196899646078085 -0.0006596352589812117
0.2792026103 -0.09699654579 0.0022581307879171136 -0.0006627537625994977
0.2845240533 -0.09699654579 0.0023214432736995863 -0.0006655506218889193
0.2898455262 -0.09699654579 0.0023874954097203357 -0.000668864394336502
0.2951669693 -0.09699654579 0.0024171146951317934 -0.0006033860598033593
0.3004884422 -0.09699654579 0.002442222785520266 -0.0005358931412562773
0.3058098853 -0.09699654579 0.0024661615841013256 -0.00046869505049702614
0.3111313581 -0.09699654579 0.002490227226106472 -0.0004015289551478056
0.3164528012 -0.09699654579 0.0025128219463601705 -0.00033687885134806874
0.3217742741 -0.09699654579 0.0025287548328248215 -0.0002783838800669421
0.3270957172 -0.09699654579 0.002461372308858657 -0.0002262689037103583
0.3324171901 -0.09699654579 0.0023940007924288386 -0.00017411645318011058
0.3377386332 -0.09699654579 0.0023298433110181408 -0.000124544672485311
0.343060106 -0.09699654579 0.002267257938378067 -7.73715597042558e-05
0.3483815491 -0.09699654579 0.0022052936362388156 -2.9870841034175707e-05
0.353703022 -0.09699654579 0.002131609771873726 -8.200781005343503e-06
0.3590244651 -0.09699654579 0.002044969219954278 -3.514955417990807e-05
0.364345938 -0.09699654579 0.0019636295938958454 -6.10139315878985e-05
0.369667381 -0.09699654579 0.0018813690412387515 -8.669688146894638e-05
0.3749888539 -0.09699654579 0.0017968339307696307 -0.00011191350705160206
0.380310297 -0.09699654579 0.0017148961192071982 -0.00013618190042300797
0.3856317699 -0.09699654579 0.0016628124979325017 -0.00018190117525533433
0.390953213 -0.09699654579 0.001615326746915666 -0.0002343576475154844
0.3962746859 -0.09699654579 0.0015676265255536565 -0.00028763063372658036
0.4015961289 -0.09699654579 0.001520838348915773 -0.0003391513902182479
0.4069176018 -0.09699654579 0.0014741304159961314 -0.00038904105472358766
0.4122390449 -0.09699654579 0.0014387302855561953 -0.00043744729514004824
0.4175605178 -0.09699654579 0.001413867086957255 -0.0004838557381462507
0.4228819609 -0.09699654579 0.0013884494339224736 -0.0005296874666392351
0.4282034338 -0.09699654579 0.0013634492793283659 -0.0005746445638641872
0.4335248768 -0.09699654579 0.0013392182600074718 -0.0006197808047055663
0.4388463497 -0.09699654579 0.0013167380454590352 -0.0006648631339080983
0.4441677928 -0.09699654579 0.0012980415584838362 -0.0007064529820646384
0.4494892657 -0.09699654579 0.0012790777031282791 -0.0007480370818125104
0.4548107088 -0.09699654579 0.0012578087207602367 -0.000789849230298552
0.4601321816 -0.09699654579 0.0012375122304214255 -0.0008315085523105858
0.4654536247 -0.09699654579 0.0012177125807516993 -0.0008647315870800816
0.4707750976 -0.09699654579 0.0012038556706475544 -0.0008878498072650441
0.4760965407 -0.09699654579 0.0011906817055574606 -0.0009107910947005766
0.4814180136 -0.09699654579 0.0011764261948081828 -0.0009338098593076897
0.4867394567 -0.09699654579 0.0011589301725693937 -0.0009581494476558043
0.4920609295 -0.09699654579 0.0011242998753179 -0.000960293440830838
0.4973823726 -0.09699654579 0.0010854400770378759 -0.0009566284451354201
0.5027038455 -0.09699654579 0.0010456991404907598 -0.0009552367852021598
0.5080252886 -0.09699654579 0.0010057717403548349 -0.0009539237337405741
0.5133467317 -0.09699654579 0.0009421491154251607 -0.000952870210177639
0.5186682343 -0.09699654579 0.0008516168636472847 -0.0009539635370566347
0.5239896774 -0.09699654579 0.0007654857555409171 -0.0009624427178532326
0.5293111205 -0.09699654579 0.000677315964381137 -0.0009670752701712429
0.5346325636 -0.09699654579 0.0005694161375435732 -0.0009850974658877235
0.5399540663 -0.09699654579 0.00044535415970841177 -0.0010270393299532518
0.5452755094 -0.09699654579 0.00032549164341228283 -0.0010701031805321688
0.5505969524 -0.09699654579 0.0002017864906523606 -0.0011119008001805601
0.5559183955 -0.09699654579 7.096244504211273e-05 -0.0011852502441344502
0.5612398982 -0.09699654579 -5.3190465066346806e-05 -0.0012687937170197154
0.5665613413 -0.09699654579 -0.0001771722884509137 -0.0013526597549340647
0.5718827844 -0.09699654579 -0.0003031338610830504 -0.0014505715647411747
0.5772042274 -0.09699654579 -0.0004133327070498908 -0.0015654817028608044
0.5825257301 -0.09699654579 -0.0005222508802086306 -0.001680265100157408
0.5878471732 -0.09699654579 -0.0006305410465220711 -0.001804487397346624
0.5931686163 -0.09699654579 -0.0007251966182216239 -0.001935542588819715
0.5984900594 -0.09699654579 -0.0008205428670542195 -0.002069273549574626
0.6038115621 -0.09699654579 -0.0009080671592192564 -0.002205335295696235
0.6091330051 -0.09699654579 -0.0009908324652885964 -0.0023446870685966317
0.6144544482 -0.09699654579 -0.0010717182510627732 -0.002482142333925553
0.6197758913 -0.09699654579 -0.001148613860507029 -0.002619132769337597
0.625097394 -0.09699654579 -0.0012251674861713609 -0.002755990562742912
0.6304188371 -0.09699654579 -0.0013021201474361724 -0.002889665476640016
0.6357402802 -0.09699654579 -0.0013798036063363721 -0.003020805555752298
0.6410617828 -0.09699654579 -0.0014607129494145126 -0.0031517049579389013
0.6463832259 -0.09699654579 -0.0015492833680012528 -0.003278200260841483
0.651704669 -0.09699654579 -0.0016446745597656046 -0.0034037496231606595
0.6570261121 -0.09699654579 -0.0017511547001588797 -0.0035314369635416464
0.6623476148 -0.09699654579 -0.0018633136292938962 -0.0036604856552765364
0.6676690578 -0.09699654579 -0.0019849673094741237 -0.0037889544342819947
0.6729905009 -0.09699654579 -0.002121585604365179 -0.003922573082845751
0.678311944 -0.09699654579 -0.002272030299496799 -0.004059977655843988
0.6836334467 -0.09699654579 -0.0024322210630365153 -0.00420485820242114
0.6889548898 -0.09699654579 -0.0026082391435834715 -0.00436250663602718
0.6942763329 -0.09699654579 -0.002801501582907728 -0.004531428582079309
0.6995977759 -0.09699654579 -0.0030133292987376903 -0.004710433553078745
0.7049192786 -0.09699654579 -0.003236305858287329 -0.0049065868038576255
0.7102407217 -0.09699654579 -0.0034767815447885155 -0.0051221502366197965
0.7155621648 -0.09699654579 -0.0037395775392277623 -0.005363496681592252
0.7208836079 -0.09699654579 -0.004022310088160593 -0.005623433558677379
0.7262051105 -0.09699654579 -0.004319883155777762 -0.0059121111741762
0.7315265536 -0.09699654579 -0.0046258029159202295 -0.006228036593741805
0.7368479967 -0.09699654579 -0.004963185891283787 -0.0065797373790022606
0.7421694398 -0.09699654579 -0.005316170549094827 -0.0069755177010807886
0.7474909425 -0.09699654579 -0.00568851555280557 -0.0074104547320400565
0.7528123856 -0.09699654579 -0.0060717288186731945 -0.00790295604701906
0.7581338286 -0.09699654579 -0.006471866046358883 -0.0084575367329437
-0.3008363545 -0.09367749095 0.0004487264867851443 0.0014035398288125306
-0.2955148816 -0.09367749095 0.00047346230084071433 0.001405703915132301
-0.2901934385 -0.09367749095 0.0004977707318869528 0.0014196134414099638
-0.2848719656 -0.09367749095 0.000558254589924702 0.0014262550468303532
-0.2795505226 -0.09367749095 0.0006049455729824419 0.001445511340277641
-0.2742290497 -0.09367749095 0.0006530788155848452 0.0014845824759538388
-0.2689076066 -0.09367749095 0.0006997337592115064 0.0015459165507829414
-0.2635861337 -0.09367749095 0.0007459440489970655 0.0016585083625999173
-0.2582646906 -0.09367749095 0.0006869388514979701 0.0016936488278132592
-0.2529432178 -0.09367749095 0.0005924694351803699 0.0016750100923578586
-0.2476217598 -0.09367749095 0.0004271394219465997 0.0016497342239461053
-0.2423003018 -0.09367749095 0.00020621685814099073 0.0015873463943702206