VARIABLES = X,Y,phix,phiy
ZONE I=200,J=200,F=POINT 
-0.3008363545 -0.1003156006 -0.00012166232817998227 -0.0007109254536365099
-0.2955148816 -0.1003156006 -0.00013185193735749343 -0.000731248051462122
-0.2901934385 -0.1003156006 -0.0001269754511551477 -0.000742947630621361
-0.2848719656 -0.1003156006 -0.00011718660375201884 -0.0007605752548384219
-0.2795505226 -0.1003156006 -0.00010784169079235538 -0.0007686627677616706
-0.2742290497 -0.1003156006 -8.449805164774907e-05 -0.0007683909003713291
-0.2689076066 -0.1003156006 -6.210506725508909e-05 -0.0007708092090559264
-0.2635861337 -0.1003156006 -4.790272118879266e-05 -0.0007644334699648638
-0.2582646906 -0.1003156006 -2.6504452504903586e-05 -0.0007365101620042249
-0.2529432178 -0.1003156006 7.1076103485573276e-06 -0.0006935087192189703
-0.2476217598 -0.1003156006 3.802883505201972e-05 -0.0006608786890719112
-0.2423003018 -0.1003156006 2.6789077653320837e-05 -0.0006207455367613776
-0.2369788438 -0.1003156006 -5.985508023710368e-06 -0.0005695202912192821
-0.2316573858 -0.1003156006 -5.389068951478272e-05 -0.0005186443850211639
-0.2263359278 -0.1003156006 -0.00010885540826808958 -0.0004454917910071396
-0.2210144699 -0.1003156006 -9.843581573757046e-05 -0.00044629090472507644
-0.2156930119 -0.1003156006 -8.550471463853892e-05 -0.00045457642922156627
-0.2103715539 -0.1003156006 -8.669841865559454e-05 -0.0004687451798452957
-0.2050500959 -0.1003156006 -9.995579342618744e-05 -0.00045063946033652163
-0.1997286379 -0.1003156006 -0.00010355908920585734 -0.00042163943653239104
-0.19440718 -0.1003156006 -0.00010832206805683717 -0.00039209144832575316
-0.189085722 -0.1003156006 -0.00013449716646057346 -0.0003474496082819496
-0.183764264 -0.1003156006 -0.00017428161120097493 -0.00028134875993506995
-0.178442806 -0.1003156006 -0.0002036823878439255 -0.0002148518899222982
-0.173121348 -0.1003156006 -0.00024204705319926003 -0.00016843932341955773
-0.16779989 -0.1003156006 -0.0002727776443061308 -0.00012007131200556888
-0.1624784321 -0.1003156006 -0.0003199857510905776 -7.455679431944863e-05
-0.1571569741 -0.1003156006 -0.0003629218903346154 -4.575183875276321e-05
-0.1518355161 -0.1003156006 -0.0004099459171990542 -1.7862443745073844e-05
-0.1465140581 -0.1003156006 -0.00046120630230125746 1.2433228056147044e-05
-0.1411926001 -0.1003156006 -0.0005092246259256054 3.2625928770457095e-05
-0.1358711421 -0.1003156006 -0.0005608936087880834 3.934815791608867e-05
-0.1305496842 -0.1003156006 -0.000612318855830837 4.61260265129394e-05
-0.1252282262 -0.1003156006 -0.0006693681084337513 5.3036346460619076e-05
-0.1199067682 -0.1003156006 -0.0007103125586177636 4.342309996697416e-05
-0.1145853102 -0.1003156006 -0.0007465447365046667 3.1215703587838875e-05
-0.1092638522 -0.1003156006 -0.0007833874337552285 1.7056096505877668e-05
-0.1039423943 -0.1003156006 -0.0008198439838258073 2.0536482865859784e-06
-0.09862093627 -0.1003156006 -0.0008447063498840545 -6.221207594582034e-06
-0.09329947084 -0.1003156006 -0.0008709161914262788 -1.4591060188614184e-05
-0.08797801286 -0.1003156006 -0.0008989728087174419 -2.2991242208624177e-05
-0.08265655488 -0.1003156006 -0.0009228400967724458 -3.194926859004955e-05
-0.0773350969 -0.1003156006 -0.0009443435360499654 -4.1529675432015224e-05
-0.07201363891 -0.1003156006 -0.0009648309828019844 -5.118272601543722e-05
-0.06669218093 -0.1003156006 -0.000985981456339704 -6.08359260014178e-05
-0.06137072667 -0.1003156006 -0.0010078239314888534 -7.166191424249755e-05
-0.05604926869 -0.1003156006 -0.0010127062882758137 -8.321165536408878e-05
-0.05072781071 -0.1003156006 -0.0010151676868239224 -9.355095466821953e-05
-0.045406349 -0.1003156006 -0.0010182089987342024 -0.0001033152709787877
-0.04008489102 -0.1003156006 -0.0010190709352046958 -0.00011466252019693805
-0.03476343304 -0.1003156006 -0.001020086181294804 -0.0001237314369589943
-0.02944197692 -0.1003156006 -0.0010213189759917898 -0.00012520035382095727
-0.02412051894 -0.1003156006 -0.0010232397982834558 -0.0001265660116165287
-0.01879905909 -0.1003156006 -0.0010243261073479676 -0.0001276302012365859
-0.01347760204 -0.1003156006 -0.0010257130853005597 -0.0001290162061935364
-0.00815614406 -0.1003156006 -0.0010223585025315267 -0.00012883914595069785
-0.00283468538 -0.1003156006 -0.0010179229089287473 -0.0001266354530493307
0.002486772602 -0.1003156006 -0.001010873417153177 -0.00012526605929707015
0.007808230817 -0.1003156006 -0.0010043509230610623 -0.000123924586199819
0.0131296888 -0.1003156006 -0.0009986424762788782 -0.00012185372607126222
0.01845114678 -0.1003156006 -0.001000358342208335 -0.00010166918898474583
0.02377260476 -0.1003156006 -0.0010064775815050182 -6.657500876690608e-05
0.02909406275 -0.1003156006 -0.0010135420969023957 -2.9290618357561785e-05
0.03441552073 -0.1003156006 -0.001018641406830337 7.990004142711234e-06
0.03973697871 -0.1003156006 -0.001026115358265044 4.336426511356011e-05
0.04505843669 -0.1003156006 -0.0010465493683453422 7.318890901105683e-05
0.05037989467 -0.1003156006 -0.001096925276024141 9.84794896949804e-05
0.05570135266 -0.1003156006 -0.0011501109344547247 0.00012555788666117804
0.06102281436 -0.1003156006 -0.0012044717826212314 0.00015332413594015547
0.06634426862 -0.1003156006 -0.0012570584833407285 0.00017929656828188074
0.0716657266 -0.1003156006 -0.0013076827844298673 0.00020418694330317768
0.07698718458 -0.1003156006 -0.001377741671042231 0.00018257837862014438
0.08230864257 -0.1003156006 -0.001449119482986337 0.00015734796245812474
0.08763010055 -0.1003156006 -0.0015249214226401007 0.00013147390864395837
0.09295155853 -0.1003156006 -0.0015983781630279665 0.00010612922922183041
0.09827301651 -0.1003156006 -0.0016683483197094833 8.113706003331489e-05
0.1035944745 -0.1003156006 -0.0017210902488070936 3.875832922614624e-05
0.1089159325 -0.1003156006 -0.0017356865821419507 -3.807401471500165e-05
0.1142373979 -0.1003156006 -0.0017518541017461154 -0.0001149176633710248
0.1195588559 -0.1003156006 -0.0017666408132273536 -0.0001864798936099433
0.1248803139 -0.1003156006 -0.0017812918988609156 -0.0002600812422468433
0.1302017719 -0.1003156006 -0.0017953964444755999 -0.0003347174719148127
0.1355232298 -0.1003156006 -0.0017706359701388473 -0.0003865077833641978
0.1408446878 -0.1003156006 -0.0017155029928137171 -0.00042068901291771694
0.1461661458 -0.1003156006 -0.0016644214078566347 -0.00045411516188805846
0.1514876038 -0.1003156006 -0.0016132491967279247 -0.0004875366170380943
0.1568090618 -0.1003156006 -0.001561497661030527 -0.0005209809364936624
0.1621305197 -0.1003156006 -0.0015099659250687341 -0.0005543165853263023
0.1674519777 -0.1003156006 -0.0014683429053547132 -0.0005485982221310101
0.1727734357 -0.1003156006 -0.001432948200755587 -0.0005261984764588635
0.1780948937 -0.1003156006 -0.001395942972633888 -0.0005037601825700909
0.1834163517 -0.1003156006 -0.0013581373593922314 -0.0004813091109569514
0.1887378097 -0.1003156006 -0.001323260455120558 -0.00045961985782985585
0.1940592676 -0.1003156006 -0.001286823211741294 -0.00043914499833534325
0.1993807256 -0.1003156006 -0.0012611508587475554 -0.00042178752997195545
0.2047021836 -0.1003156006 -0.0012410896425840718 -0.00040553561005060893
0.2100236416 -0.1003156006 -0.0012198087313051913 -0.00038926601117227283
0.2153450996 -0.1003156006 -0.0011996699359273267 -0.0003720548365777782
0.2206665576 -0.1003156006 -0.0011793829533758664 -0.00035530560939681197
0.2259880155 -0.1003156006 -0.0011584900182520592 -0.00033857812635398833
0.2313094735 -0.1003156006 -0.0011288867489650516 -0.0002942968658181467
0.2366309315 -0.1003156006 -0.0011007715421349055 -0.00024440843209064576
0.2419523895 -0.1003156006 -0.001073142252173156 -0.00019555447656521843
0.2472738475 -0.1003156006 -0.0010450341139128902 -0.0001469011300466492
0.2525953054 -0.1003156006 -0.0010168641100584855 -9.910507718220115e-05
0.2579167783 -0.1003156006 -0.000991415896607086 -5.293369197529076e-05
0.2632382214 -0.1003156006 -0.0010129445237071083 5.804139384200049e-06
0.2685596943 -0.1003156006 -0.001046809623053285 6.867234829820595e-05
0.2738811374 -0.1003156006 -0.001079937196084061 0.0001338914171161599
0.2792026103 -0.1003156006 -0.0011137380769182697 0.0001971403350153866
0.2845240533 -0.1003156006 -0.0011449262178315032 0.00025625696458420397
0.2898455262 -0.1003156006 -0.0011760842988283496 0.000315395869351934
0.2951669693 -0.1003156006 -0.0012409999306613616 0.0003187072939622949
0.3004884422 -0.1003156006 -0.001311204368114913 0.00031318256975079137
0.3058098853 -0.1003156006 -0.0013718858420321593 0.00030991144709409553
0.3111313581 -0.1003156006 -0.0014335326243400729 0.00030663441646769824
0.3164528012 -0.1003156006 -0.0014966647882557812 0.00030339753203477524
0.3217742741 -0.1003156006 -0.0015567128194740986 0.0002990358065191554
0.3270957172 -0.1003156006 -0.0015613356302992638 0.0002543682886300084
0.3324171901 -0.1003156006 -0.0015644322768079012 0.0002092869011382233
0.3377386332 -0.1003156006 -0.001568928871999688 0.0001643655854019439
0.343060106 -0.1003156006 -0.0015727527343293948 0.00011954402752856866
0.3483815491 -0.1003156006 -0.0015763006861009468 8.137576155163294e-05
0.353703022 -0.1003156006 -0.0015695800358501123 5.282462375842389e-05
0.3590244651 -0.1003156006 -0.0015340031449865175 4.5283492634248146e-05
0.364345938 -0.1003156006 -0.001498595798514703 3.7886822211134195e-05
0.369667381 -0.1003156006 -0.0014672469046575526 3.0242948467423053e-05
0.3749888539 -0.1003156006 -0.001436635958922321 2.2657735415288068e-05
0.380310297 -0.1003156006 -0.0014034765578839954 1.5254332627849316e-05
0.3856317699 -0.1003156006 -0.0013841405528432376 2.0466766421128328e-05
0.390953213 -0.1003156006 -0.0013685277763857123 2.7945704472102057e-05
0.3962746859 -0.1003156006 -0.0013536132693823387 3.5607176474015495e-05
0.4015961289 -0.1003156006 -0.0013356419799083101 4.35723491344602e-05
0.4069176018 -0.1003156006 -0.0013161678466360764 5.145418612389795e-05
0.4122390449 -0.1003156006 -0.00130020643802381 5.163789701235381e-05
0.4175605178 -0.1003156006 -0.0012876819525838106 4.255994077503973e-05
0.4228819609 -0.1003156006 -0.0012753738560967627 3.266724286362077e-05
0.4282034338 -0.1003156006 -0.0012623636594731175 2.3085045634355696e-05
0.4335248768 -0.1003156006 -0.0012498227773323311 1.4875781102781208e-05
0.4388463497 -0.1003156006 -0.0012312028949584576 6.32190665793471e-06
0.4441677928 -0.1003156006 -0.00119898368131151 -3.7306869853607397e-06
0.4494892657 -0.1003156006 -0.0011669919079446331 -1.3108066993067649e-05
0.4548107088 -0.1003156006 -0.0011358135450836014 -2.1199177772363295e-05
0.4601321816 -0.1003156006 -0.0011040705831520197 -3.0441894896454017e-05
0.4654536247 -0.1003156006 -0.0010693929796469586 -3.770883464477932e-05
0.4707750976 -0.1003156006 -0.0010299072680308207 -4.0872061100378525e-05
0.4760965407 -0.1003156006 -0.0009920055383886108 -4.344317806891721e-05
0.4814180136 -0.1003156006 -0.000952589599977942 -4.593883676454036e-05
0.4867394567 -0.1003156006 -0.0009138484664061639 -4.860934916459349e-05
0.4920609295 -0.1003156006 -0.0008702359325670494 -5.440236100234231e-05
0.4973823726 -0.1003156006 -0.0008259912737506242 -5.965855750349204e-05
0.5027038455 -0.1003156006 -0.000782702480264515 -6.510939858998486e-05
0.5080252886 -0.1003156006 -0.0007394233785615655 -7.047854235697334e-05
0.5133467317 -0.1003156006 -0.000690459966731502 -7.2174727319168e-05
0.5186682343 -0.1003156006 -0.0006293560147439863 -7.43548516377592e-05
0.5239896774 -0.1003156006 -0.0005680837086056233 -7.650015037937681e-05
0.5293111205 -0.1003156006 -0.0005081642480692716 -7.786998324893454e-05
0.5346325636 -0.1003156006 -0.00044388674741847715 -6.943671458882975e-05
0.5399540663 -0.1003156006 -0.0003644661731839918 -5.361292882576786e-05
0.5452755094 -0.1003156006 -0.0002827079017991466 -3.8542406348786275e-05
0.5505969524 -0.1003156006 -0.00020709508269139165 -2.194740089715502e-05
0.5559183955 -0.1003156006 -0.00012910179270650177 1.5014052993272277e-05
0.5612398982 -0.1003156006 -3.926721307726609e-05 5.849532007659218e-05
0.5665613413 -0.1003156006 4.902251224722846e-05 0.00010197483706014956
0.5718827844 -0.1003156006 0.0001274281288873107 0.00015401735735609597
0.5772042274 -0.1003156006 0.00020953944883495134 0.00022270066528315045
0.5825257301 -0.1003156006 0.00029342399127565245 0.00029178312353679
0.5878471732 -0.1003156006 0.0003676766579179174 0.0003661892120497473
0.5931686163 -0.1003156006 0.00043947279246136855 0.0004522465010343455
0.5984900594 -0.1003156006 0.0005099158798727504 0.0005376432478360202
0.6038115621 -0.1003156006 0.0005727143112028025 0.0006349856497481897
0.6091330051 -0.1003156006 0.0006308573585274712 0.0007332143410285621
0.6144544482 -0.1003156006 0.0006885639236896602 0.0008387095500834385
0.6197758913 -0.1003156006 0.0007378125484327866 0.0009464576946850808
0.625097394 -0.1003156006 0.0007871163556823229 0.0010564169346452019
0.6304188371 -0.1003156006 0.0008330508840302875 0.0011706958716749287
0.6357402802 -0.1003156006 0.0008751590801925422 0.001285265522594222
0.6410617828 -0.1003156006 0.0009140583570332021 0.001403845404652288
0.6463832259 -0.1003156006 0.0009502720270948404 0.0015236344491326608
0.651704669 -0.1003156006 0.000986769153187047 0.0016454308804821434
0.6570261121 -0.1003156006 0.0010204241243268498 0.001773760453224814
0.6623476148 -0.1003156006 0.0010553760080727521 0.0019066436880985208
0.6676690578 -0.1003156006 0.001089936692264914 0.0020426589335589187
0.6729905009 -0.1003156006 0.001122238189148066 0.0021894736031074203
0.678311944 -0.1003156006 0.0011511309636362164 0.0023420333557659205
0.6836334467 -0.1003156006 0.001175859362944699 0.0025023982203945514
0.6889548898 -0.1003156006 0.0011967405208820824 0.002674556077020546
0.6942763329 -0.1003156006 0.001206505655534375 0.0028568172829940897
0.6995977759 -0.1003156006 0.0012115898421843742 0.003047033660178547
0.7049192786 -0.1003156006 0.001207905276865015 0.003246082508450728
0.7102407217 -0.1003156006 0.0011906084722763323 0.0034575816336868026
0.7155621648 -0.1003156006 0.0011575196443450516 0.0036774861992133773
0.7208836079 -0.1003156006 0.0011078787434162438 0.0039025405502003774
0.7262051105 -0.1003156006 0.0010420129733475336 0.004133358442084052
0.7315265536 -0.1003156006 0.0009543600510123388 0.004370018255283603
0.7368479967 -0.1003156006 0.0008368159485711978 0.004607247478337692
0.7421694398 -0.1003156006 0.0006951551768449252 0.004842986066650628
0.7474909425 -0.1003156006 0.0005373718075684141 0.005061569391188747
0.7528123856 -0.1003156006 0.00034726181851052945 0.005277049660095486
0.7581338286 -0.1003156006 0.0001308388878744799 0.00547638712844498
-0.3008363545 -0.09699654579 -9.527875900422746e-05 -0.00071028678329031
-0.2955148816 -0.09699654579 -0.00010109884290980188 -0.0007247047540499963
-0.2901934385 -0.09699654579 -0.00010403806955725642 -0.0007571128307121061
-0.2848719656 -0.09699654579 -9.568658730151155e-05 -0.0007717249430092929
-0.2795505226 -0.09699654579 -8.525995668834401e-05 -0.0007769996196949383
-0.2742290497 -0.09699654579 -7.081404515560449e-05 -0.000781042692431737
-0.2689076066 -0.09699654579 -4.206752657458251e-05 -0.000781545582463059
-0.2635861337 -0.09699654579 -2.9719371399765415e-05 -0.0007599628897787292
-0.2582646906 -0.09699654579 -1.4374445366536754e-05 -0.0007226200602863802
-0.2529432178 -0.09699654579 1.021284063022739e-05 -0.0006912848502044161
-0.2476217598 -0.09699654579 4.628191416754594e-05 -0.0006559297480155106
-0.2423003018 -0.09699654579 5.447932828873688e-05 -0.0006297515751211932
-0.2369788438 -0.09699654579 1.0922552253295387e-05 -0.0006038887505939319
-0.2316573858 -0.09699654579 -4.248541182669336e-05 -0.0005301057408612542
-0.2263359278 -0.09699654579 -8.151496827417605e-05 -0.0004357733603458468
-0.2210144699 -0.09699654579 -7.867913263478649e-05 -0.0004352008655273909
-0.2156930119 -0.09699654579 -7.869659474311354e-05 -0.000451166798842494
-0.2103715539 -0.09699654579 -7.265948673627062e-05 -0.0004676819434992362
-0.2050500959 -0.09699654579 -7.901292455715124e-05 -0.0004550279897805017
-0.1997286379 -0.09699654579 -8.300568253555063e-05 -0.0004256090406242895
-0.19440718 -0.09699654579 -8.115307817814606e-05 -0.0003879413617954172
-0.189085722 -0.09699654579 -9.248356598272166e-05 -0.0003283276449424735
-0.183764264 -0.09699654579 -0.00011044239822748496 -0.0002613376049006687
-0.178442806 -0.09699654579 -0.00014109477472974745 -0.00020528428117852311
-0.173121348 -0.09699654579 -0.00017974191245786697 -0.0001589361352680284
-0.16779989 -0.09699654579 -0.00023180907953302435 -0.00011430547834855017
-0.1624784321 -0.09699654579 -0.0002702528909078588 -6.326582179481492e-05
-0.1571569741 -0.09699654579 -0.0003196768505194093 -2.3569709634826427e-05
-0.1518355161 -0.09699654579 -0.0003643361088864955 8.0844483396782e-06
-0.1465140581 -0.09699654579 -0.00041468494015551915 3.815305016338362e-05
-0.1411926001 -0.09699654579 -0.00046972916013851936 5.964817962824548e-05
-0.1358711421 -0.09699654579 -0.0005280967147532775 6.648586688209983e-05
-0.1305496842 -0.09699654579 -0.0005923817417797729 7.31179662234698e-05
-0.1252282262 -0.09699654579 -0.0006502486136998494 7.98750667541035e-05
-0.1199067682 -0.09699654579 -0.0006870758678470771 6.722650184226956e-05
-0.1145853102 -0.09699654579 -0.0007194603582893712 5.1377840724781025e-05
-0.1092638522 -0.09699654579 -0.0007502808107419489 3.497447709513512e-05
-0.1039423943 -0.09699654579 -0.0007813318573985338 1.5326473578574392e-05
-0.09862093627 -0.09699654579 -0.0008054611651826491 7.465632074946819e-06
-0.09329947084 -0.09699654579 -0.0008313653147440127 3.335502541338019e-07
-0.08797801286 -0.09699654579 -0.0008588630446720227 -6.053294275046233e-06
-0.08265655488 -0.09699654579 -0.0008851778109566593 -1.4001867418357367e-05
-0.0773350969 -0.09699654579 -0.0009066961690503497 -2.496190048317329e-05
-0.07201363891 -0.09699654579 -0.0009299151777986721 -3.719341207420396e-05
-0.06669218093 -0.09699654579 -0.0009526239944842132 -4.9787050565357676e-05
-0.06137072667 -0.09699654579 -0.0009761490367034266 -6.242189000320582e-05
-0.05604926869 -0.09699654579 -0.0009822083541670312 -7.553779015009728e-05
-0.05072781071 -0.09699654579 -0.0009843520867025026 -8.796340361912979e-05
-0.045406349 -0.09699654579 -0.0009864206234689616 -0.00010040673839216982
-0.04008489102 -0.09699654579 -0.0009886946227074785 -0.00011273688568370353
-0.03476343304 -0.09699654579 -0.0009912173688677067 -0.00012240478013473687
-0.02944197692 -0.09699654579 -0.0009970728110317512 -0.00012370444840670454
-0.02412051894 -0.09699654579 -0.0010003338916606526 -0.0001248392082041515
-0.01879905909 -0.09699654579 -0.0010059870819483635 -0.00012609161086298365
-0.01347760204 -0.09699654579 -0.0010119437624255675 -0.00012753623850066977
-0.00815614406 -0.09699654579 -0.0010111363570718828 -0.00012826671693223155
-0.00283468538 -0.09699654579 -0.001005588715597859 -0.0001276610369662198
0.002486772602 -0.09699654579 -0.000999050294065295 -0.00012742383120636507
0.007808230817 -0.09699654579 -0.0009926321036845638 -0.00012716904724329982
0.0131296888 -0.09699654579 -0.0009867611921859827 -0.00012674116124440976
0.01845114678 -0.09699654579 -0.0009882369353852347 -0.00010391796713567977
0.02377260476 -0.09699654579 -0.0009930570654528583 -6.384043033463984e-05
0.02909406275 -0.09699654579 -0.0009992395325534727 -2.2257209893761175e-05
0.03441552073 -0.09699654579 -0.0010059170213431161 1.9715131825315502e-05
0.03973697871 -0.09699654579 -0.001013265418531198 5.973135251581516e-05
0.04505843669 -0.09699654579 -0.0010341277027972697 9.483959926145265e-05
0.05037989467 -0.09699654579 -0.00109149794197182 0.00012555523292553348
0.05570135266 -0.09699654579 -0.0011492580130941813 0.00015643276862972727
0.06102281436 -0.09699654579 -0.0012082614354653283 0.0001889921735342653
0.06634426862 -0.09699654579 -0.0012655551973966212 0.00021925045354333046
0.0716657266 -0.09699654579 -0.001320906105896684 0.00024955727113800763
0.07698718458 -0.09699654579 -0.0014011895980332984 0.00022507132376838686
0.08230864257 -0.09699654579 -0.001483288583262419 0.0001973979426043634
0.08763010055 -0.09699654579 -0.0015639101151728482 0.000169951589174142
0.09295155853 -0.09699654579 -0.0016437512999888653 0.00014283787217620462
0.09827301651 -0.09699654579 -0.001723540744281934 0.00011560519848374955
0.1035944745 -0.09699654579 -0.0017819941023255982 6.746139807462808e-05
0.1089159325 -0.09699654579 -0.001798475957127729 -1.841028680908311e-05
0.1142373979 -0.09699654579 -0.0018124884559613664 -0.00010132561995201055
0.1195588559 -0.09699654579 -0.0018278486296190194 -0.00018174294738410694
0.1248803139 -0.09699654579 -0.001842372332535038 -0.00026220428436980286
0.1302017719 -0.09699654579 -0.0018583701343374626 -0.0003447962947080165
0.1355232298 -0.09699654579 -0.0018249811478684092 -0.0003999903800495331
0.1408446878 -0.09699654579 -0.0017635532378635112 -0.00043441918635761127
0.1461661458 -0.09699654579 -0.0017033015326842426 -0.0004687351909735391
0.1514876038 -0.09699654579 -0.0016450357168116556 -0.0005030960828392352
0.1568090618 -0.09699654579 -0.001587672846938719 -0.0005375408036482607
0.1621305197 -0.09699654579 -0.0015322213266273004 -0.000571966988994725
0.1674519777 -0.09699654579 -0.0014875983126142096 -0.0005648578437692052
0.1727734357 -0.09699654579 -0.001447650405060499 -0.0005425741128887262
0.1780948937 -0.09699654579 -0.0014071175854665924 -0.000520021675734242
0.1834163517 -0.09699654579 -0.0013660331295854888 -0.0004975930094890657
0.1887378097 -0.09699654579 -0.001327510327732662 -0.00047615690689578166
0.1940592676 -0.09699654579 -0.0012876852595460227 -0.0004546673796094771
0.1993807256 -0.09699654579 -0.001262110803510267 -0.000441606358438098
0.2047021836 -0.09699654579 -0.0012372432353214915 -0.0004308475562377897
0.2100236416 -0.09699654579 -0.0012145888817171086 -0.0004158425632676262
0.2153450996 -0.09699654579 -0.0011910165003899602 -0.0004004235163298903
0.2206665576 -0.09699654579 -0.0011678966961652742 -0.00038501842255319826
0.2259880155 -0.09699654579 -0.0011452679472686896 -0.00036969964371314
0.2313094735 -0.09699654579 -0.001111839393030008 -0.0003229180222848902
0.2366309315 -0.09699654579 -0.0010784919296045132 -0.00026797449724773656
0.2419523895 -0.09699654579 -0.0010451893783473727 -0.00021307034402081598
0.2472738475 -0.09699654579 -0.0010119321737291592 -0.00015818433428899307
0.2525953054 -0.09699654579 -0.0009812937216592658 -0.00010590975505068049
0.2579167783 -0.09699654579 -0.0009529899949371343 -5.5348071810792866e-05
0.2632382214 -0.09699654579 -0.000978651510606949 1.3344480882594837e-05
0.2685596943 -0.09699654579 -0.0010162764428223899 8.616236247579751e-05
0.2738811374 -0.09699654579 -0.0010526846953861863 0.00015535858395466346
0.2792026103 -0.09699654579 -0.0010850941366982825 0.00022063576464702496
0.2845240533 -0.09699654579 -0.0011196775926056622 0.00028637595801860277
0.2898455262 -0.09699654579 -0.0011543767613556488 0.00035435444127602226
0.2951669693 -0.09699654579 -0.001226918485446703 0.0003535117118457614
0.3004884422 -0.09699654579 -0.001300765982285858 0.0003468672573620735
0.3058098853 -0.09699654579 -0.0013744490094475931 0.0003403057612057358
0.3111313581 -0.09699654579 -0.001449873646753713 0.00033376499121807416
0.3164528012 -0.09699654579 -0.0015206247590971984 0.00032782207489530656
0.3217742741 -0.09699654579 -0.0015814524847565352 0.0003210062834962135
0.3270957172 -0.09699654579 -0.0015872464506823548 0.00026868585853148755
0.3324171901 -0.09699654579 -0.0015921703219830348 0.00021636199722101387
0.3377386332 -0.09699654579 -0.0015990978568608512 0.0001669201663453487
0.343060106 -0.09699654579 -0.0016044676739844102 0.00011984661825247179
0.3483815491 -0.09699654579 -0.0016108332608094258 7.201966286642794e-05
0.353703022 -0.09699654579 -0.001600369482066698 3.801970403582556e-05
0.3590244651 -0.09699654579 -0.0015634710885702307 3.123759914969868e-05
0.364345938 -0.09699654579 -0.0015284264454732042 2.3990336118355414e-05
0.369667381 -0.09699654579 -0.0014936302289894916 1.6548187290587117e-05
0.3749888539 -0.09699654579 -0.0014574510986546134 9.126155766097614e-06
0.380310297 -0.09699654579 -0.001422047403259119 1.5225975111558939e-06
0.3856317699 -0.09699654579 -0.0014052957863660638 7.513576533050518e-06
0.390953213 -0.09699654579 -0.0013903606666992407 1.7054444498449095e-05
0.3962746859 -0.09699654579 -0.0013766884762429223 2.7784410890136982e-05
0.4015961289 -0.09699654579 -0.001362383784800721 3.669454223781536e-05
0.4069176018 -0.09699654579 -0.0013471834738706288 4.5339268507852895e-05
0.4122390449 -0.09699654579 -0.001335572387849063 4.4914115512601116e-05
0.4175605178 -0.09699654579 -0.0013291704954321501 3.210439438007742e-05
0.4228819609 -0.09699654579 -0.0013195267244658939 2.1505490534353247e-05
0.4282034338 -0.09699654579 -0.0013103808655141797 1.1193147847108782e-05
0.4335248768 -0.09699654579 -0.001301285188065012 8.020458287418303e-07
0.4388463497 -0.09699654579 -0.0012854411710424177 -1.0502101582280575e-05
0.4441677928 -0.09699654579 -0.001255301365840216 -2.1500325373093215e-05
0.4494892657 -0.09699654579 -0.0012219637108496642 -3.252992621419204e-05
0.4548107088 -0.09699654579 -0.0011890362499195775 -4.361907642535613e-05
0.4601321816 -0.09699654579 -0.0011559937433653746 -5.384087471523457e-05
0.4654536247 -0.09699654579 -0.0011209700174155404 -6.099940918304453e-05
0.4707750976 -0.09699654579 -0.001081774328341839 -6.44123581356259e-05
0.4760965407 -0.09699654579 -0.0010409217805704787 -6.810116239184071e-05
0.4814180136 -0.09699654579 -0.0010012299179647855 -7.145282929787281e-05
0.4867394567 -0.09699654579 -0.0009618760421455058 -7.446500270769968e-05
0.4920609295 -0.09699654579 -0.0009182338050889672 -8.13536548648332e-05
0.4973823726 -0.09699654579 -0.0008734177055508773 -8.898550906230082e-05
0.5027038455 -0.09699654579 -0.000828866366228892 -9.62380658062983e-05
0.5080252886 -0.09699654579 -0.0007838310527353859 -0.00010312134241228759
0.5133467317 -0.09699654579 -0.0007282887723604935 -0.00010964765982361656
0.5186682343 -0.09699654579 -0.0006625648159600529 -0.00011506665678970544
0.5239896774 -0.09699654579 -0.0006004223483652424 -0.00011694225489988446
0.5293111205 -0.09699654579 -0.0005364994492551676 -0.00012064178189369294
0.5346325636 -0.09699654579 -0.00045982890750467575 -0.00011786036140053576
0.5399540663 -0.09699654579 -0.00037527994804037294 -0.00010343204859035321
0.5452755094 -0.09699654579 -0.0002935085561761167 -8.814431656681312e-05
0.5505969524 -0.09699654579 -0.00020779509000534496 -7.381562409816204e-05
0.5559183955 -0.09699654579 -0.0001147982932053997 -3.842545678287762e-05
0.5612398982 -0.09699654579 -2.615122601451025e-05 5.073760250114766e-06
0.5665613413 -0.09699654579 6.285546293096196e-05 4.8460782680358763e-05
0.5718827844 -0.09699654579 0.00015741684271739298 0.00010202578271243538
0.5772042274 -0.09699654579 0.00024212662588012706 0.00017116987067501246
0.5825257301 -0.09699654579 0.0003263599591360828 0.0002402706452609383
0.5878471732 -0.09699654579 0.00041187605957378654 0.00031835618895711135
0.5931686163 -0.09699654579 0.0004857012887754362 0.00040602497063481374
0.5984900594 -0.09699654579 0.0005623105128944664 0.0004964130816961892
0.6038115621 -0.09699654579 0.000629473134536325 0.0005946261333804308
0.6091330051 -0.09699654579 0.0006928529120625608 0.0006990002907608679
0.6144544482 -0.09699654579 0.0007522232841511975 0.000803857902153014
0.6197758913 -0.09699654579 0.0008055355371102882 0.000915750709825676
0.625097394 -0.09699654579 0.0008564977881534805 0.0010277706540210692
0.6304188371 -0.09699654579 0.0009003976155782818 0.001143288203646976
0.6357402802 -0.09699654579 0.0009450675371993333 0.0012603332961460658
0.6410617828 -0.09699654579 0.0009843418457730353 0.0013779315946273484
0.6463832259 -0.09699654579 0.0010253503270161847 0.0014991408226277634
0.651704669 -0.09699654579 0.0010650366895813596 0.0016218339359964317
0.6570261121 -0.09699654579 0.0011035325523678884 0.0017521599294444993
0.6623476148 -0.09699654579 0.001141362787543722 0.0018855050292821023
0.6676690578 -0.09699654579 0.0011768260741227248 0.0020240600929200686
0.6729905009 -0.09699654579 0.0012134437904705168 0.0021694947161949234
0.678311944 -0.09699654579 0.001248950770858732 0.0023238651580365114
0.6836334467 -0.09699654579 0.0012816750127671755 0.0024858780958428237
0.6889548898 -0.09699654579 0.0013074409663331125 0.0026594181354801004
0.6942763329 -0.09699654579 0.0013262620098696831 0.0028448777891700696
0.6995977759 -0.09699654579 0.0013396738352320775 0.003043119405461435
0.7049192786 -0.09699654579 0.001341753286615342 0.0032499353394665853
0.7102407217 -0.09699654579 0.0013289488483451332 0.0034684230438207417
0.7155621648 -0.09699654579 0.0012989535677790359 0.00369809076125075
0.7208836079 -0.09699654579 0.0012534605324300142 0.003938918437508484
0.7262051105 -0.09699654579 0.0011844813503310392 0.0041860894506530084
0.7315265536 -0.09699654579 0.0010971335500455622 0.004433097185865363
0.7368479967 -0.09699654579 0.0009837652721620832 0.004688542864694275
0.7421694398 -0.09699654579 0.0008401840852258458 0.004935556577130957
0.7474909425 -0.09699654579 0.0006685041860478275 0.005179504016992942
0.7528123856 -0.09699654579 0.0004661723572887748 0.005406209711629746
0.7581338286 -0.09699654579 0.00023843164832513744 0.005619730976538864
-0.3008363545 -0.09367749095 -6.887852236459221e-05 -0.000704044313086483
-0.2955148816 -0.09367749095 -7.716827928158994e-05 -0.0007244124914603614
-0.2901934385 -0.09367749095 -7.016287406759498e-05 -0.000764167885490456
-0.2848719656 -0.09367749095 -7.79460672968257e-05 -0.0007806675992391373
-0.2795505226 -0.09367749095 -6.515035695761489e-05 -0.0007894952723908246
-0.2742290497 -0.09367749095 -5.8059637981095335e-05 -0.0007883698763379224
-0.2689076066 -0.09367749095 -4.4674099893260994e-05 -0.0007868952393667089
-0.2635861337 -0.09367749095 -1.9403423533416634e-05 -0.0007499663845981054