VARIABLES = X,Y,phix,phiy
ZONE I=200,J=200,F=POINT 
-0.3008363545 -0.1003156006 0.0003489754560012717 0.0009563783726428346
-0.2955148816 -0.1003156006 0.00037244291057929026 0.0009093235304527587
-0.2901934385 -0.1003156006 0.00037275150319947205 0.0008345750805987482
-0.2848719656 -0.1003156006 0.00037135489207238537 0.0007584758915544377
-0.2795505226 -0.1003156006 0.00037299052592763615 0.0006775257907067605
-0.2742290497 -0.1003156006 0.0003865653383103449 0.0005836115031790318
-0.2689076066 -0.1003156006 0.00038571353757930945 0.0004945209158064327
-0.2635861337 -0.1003156006 0.0004107512037903571 0.0004830248044085829
-0.2582646906 -0.1003156006 0.00044427411242675176 0.0004991025622759201
-0.2529432178 -0.1003156006 0.0004923545219355983 0.0005132468113612278
-0.2476217598 -0.1003156006 0.0005653997498501478 0.0005405234216878932
-0.2423003018 -0.1003156006 0.0006416032206367916 0.0005563013962700253
-0.2369788438 -0.1003156006 0.0006819956149460811 0.0005692674658819093
-0.2316573858 -0.1003156006 0.0007080885597233722 0.0005820535215819147
-0.2263359278 -0.1003156006 0.00073213127862927 0.0006004775824085492
-0.2210144699 -0.1003156006 0.0006872365171529671 0.0005537792528198295
-0.2156930119 -0.1003156006 0.0006264085991369318 0.000506172823931465
-0.2103715539 -0.1003156006 0.0005348957354688231 0.00044255715067662623
-0.2050500959 -0.1003156006 0.0005663023975061369 0.00039396931809433997
-0.1997286379 -0.1003156006 0.0005963910660769636 0.0003229437945168297
-0.19440718 -0.1003156006 0.0006363229432164014 0.000229930277895607
-0.189085722 -0.1003156006 0.0006821957600719895 0.00018376193614036722
-0.183764264 -0.1003156006 0.000742757492046635 0.00014637387717247917
-0.178442806 -0.1003156006 0.0008085466148622895 0.00012360624598805136
-0.173121348 -0.1003156006 0.0008423774255773079 0.00011380599729795632
-0.16779989 -0.1003156006 0.0008703252865188461 0.00010758670281268181
-0.1624784321 -0.1003156006 0.0008850546484603675 0.0001008388731400847
-0.1571569741 -0.1003156006 0.0009129511000376722 0.00010207778061547796
-0.1518355161 -0.1003156006 0.0009479594024932512 0.00010411418470564489
-0.1465140581 -0.1003156006 0.000984014087748474 0.00010543054300203083
-0.1411926001 -0.1003156006 0.001023343076123236 0.00010253405379686835
-0.1358711421 -0.1003156006 0.0010703231165029308 8.336545113182935e-05
-0.1305496842 -0.1003156006 0.0011168263695296309 6.419418350597389e-05
-0.1252282262 -0.1003156006 0.0011652508656302598 4.1877008052477676e-05
-0.1199067682 -0.1003156006 0.0012249073601924268 3.0423890243436172e-05
-0.1145853102 -0.1003156006 0.0012875076361477465 2.020851276409081e-05
-0.1092638522 -0.1003156006 0.0013510504370389013 1.0427859616063232e-05
-0.1039423943 -0.1003156006 0.0014144331234446329 3.3280999208498134e-06
-0.09862093627 -0.1003156006 0.0014590395502811892 3.376665420389326e-05
-0.09329947084 -0.1003156006 0.0015053594520280736 6.649305739601435e-05
-0.08797801286 -0.1003156006 0.0015518444292049068 9.924779375211702e-05
-0.08265655488 -0.1003156006 0.0015959927657560272 0.00013375966224596952
-0.0773350969 -0.1003156006 0.0016121505330380914 0.0001711533126356
-0.07201363891 -0.1003156006 0.0016282971387790775 0.00020819643459318315
-0.06669218093 -0.1003156006 0.001645001870946204 0.00024524244189601897
-0.06137072667 -0.1003156006 0.0016621116587904373 0.0002847745150032546
-0.05604926869 -0.1003156006 0.0016682374125975654 0.0003085120391998849
-0.05072781071 -0.1003156006 0.0016702782468267137 0.00032730037593906724
-0.045406349 -0.1003156006 0.0016737565895127025 0.00034623694745595005
-0.04008489102 -0.1003156006 0.0016772547793015645 0.0003650314728431938
-0.03476343304 -0.1003156006 0.0016759971932795792 0.0003846487119363024
-0.02944197692 -0.1003156006 0.0016653945586984577 0.000403175452728607
-0.02412051894 -0.1003156006 0.0016534941297469611 0.00042267199318959237
-0.01879905909 -0.1003156006 0.0016418708343099643 0.00044349987316914027
-0.01347760204 -0.1003156006 0.0016310528279686897 0.00046288903274101673
-0.00815614406 -0.1003156006 0.0015959576921908876 0.0004706297560359418
-0.00283468538 -0.1003156006 0.0015444621892528661 0.00046807059701935177
0.002486772602 -0.1003156006 0.0014865939455378245 0.0004685291829935513
0.007808230817 -0.1003156006 0.001430201030319909 0.00046894866957570685
0.0131296888 -0.1003156006 0.0013771060582236576 0.00046696135783591417
0.01845114678 -0.1003156006 0.0013312030173496135 0.00041904222196175573
0.02377260476 -0.1003156006 0.0012926178534375715 0.00033369196125492126
0.02909406275 -0.1003156006 0.0012495636649617332 0.00024378218217025022
0.03441552073 -0.1003156006 0.0012059442898459717 0.00015386029299927596
0.03973697871 -0.1003156006 0.0011663271245019415 6.789911354819108e-05
0.04505843669 -0.1003156006 0.0011655973328712989 -1.1828888184151737e-05
0.05037989467 -0.1003156006 0.001227835586268865 -8.682062916844803e-05
0.05570135266 -0.1003156006 0.0012938135984878927 -0.00016635430122057841
0.06102281436 -0.1003156006 0.0013596558560226729 -0.0002468490708957685
0.06634426862 -0.1003156006 0.001423018944211151 -0.0003231989918943047
0.0716657266 -0.1003156006 0.0014857765242134665 -0.00039713869790028433
0.07698718458 -0.1003156006 0.0015872516966919735 -0.0003854817426375422
0.08230864257 -0.1003156006 0.0016924299620383041 -0.0003667557385320851
0.08763010055 -0.1003156006 0.0018015425251708122 -0.0003469631787226629
0.09295155853 -0.1003156006 0.0019063463758456638 -0.0003281752655250923
0.09827301651 -0.1003156006 0.002009498899408243 -0.00031010046939986853
0.1035944745 -0.1003156006 0.002080439959652856 -0.00026633953505698866
0.1089159325 -0.1003156006 0.0020836456091381608 -0.00017011477376759995
0.1142373979 -0.1003156006 0.0020857270373536145 -7.388366122778034e-05
0.1195588559 -0.1003156006 0.0020896298941661374 1.2026841651207e-05
0.1248803139 -0.1003156006 0.0020930165886180034 0.0001015041810150801
0.1302017719 -0.1003156006 0.0020952338231766503 0.00019358151358241413
0.1355232298 -0.1003156006 0.0020346585070004242 0.00023431812833737481
0.1408446878 -0.1003156006 0.0019308436314633844 0.00023488829514129543
0.1461661458 -0.1003156006 0.0018331907961440677 0.0002348061165731077
0.1514876038 -0.1003156006 0.0017349222750771718 0.00023472679076017142
0.1568090618 -0.1003156006 0.0016370675860932866 0.00023466217200290005
0.1621305197 -0.1003156006 0.0015404263670298964 0.00023457967761702746
0.1674519777 -0.1003156006 0.0015016050278261767 0.00017809001745600902
0.1727734357 -0.1003156006 0.0014869871012568306 9.399962717934387e-05
0.1780948937 -0.1003156006 0.0014713088084418922 9.878262233480782e-06
0.1834163517 -0.1003156006 0.0014558830703289027 -7.425340842902965e-05
0.1887378097 -0.1003156006 0.0014405825207784422 -0.00015502976589529578
0.1940592676 -0.1003156006 0.0014260226654359014 -0.0002311464733659562
0.1993807256 -0.1003156006 0.001459023002311211 -0.00025815292268602464
0.2047021836 -0.1003156006 0.0015073563207311767 -0.0002687722619204234
0.2100236416 -0.1003156006 0.0015556640851163508 -0.0002797036250265282
0.2153450996 -0.1003156006 0.001600696271526825 -0.00029252261649967133
0.2206665576 -0.1003156006 0.0016451602387695023 -0.00030466490901480923
0.2259880155 -0.1003156006 0.0016922462909516847 -0.0003165492396415256
0.2313094735 -0.1003156006 0.0016974829903525393 -0.00030869613911230074
0.2366309315 -0.1003156006 0.0016929567264513808 -0.0002976686192417049
0.2419523895 -0.1003156006 0.0016884061966656717 -0.00028753977363824186
0.2472738475 -0.1003156006 0.0016840234328122441 -0.00027700590013167474
0.2525953054 -0.1003156006 0.0016798233268785993 -0.00026650034615399775
0.2579167783 -0.1003156006 0.0016767446984709577 -0.0002570444558443572
0.2632382214 -0.1003156006 0.001666152885204686 -0.00027047402368627493
0.2685596943 -0.1003156006 0.0016539572548886685 -0.0002899208763958299
0.2738811374 -0.1003156006 0.0016430370215741808 -0.000310726041646974
0.2792026103 -0.1003156006 0.0016313422277189182 -0.0003300376532705991
0.2845240533 -0.1003156006 0.001619284807096225 -0.0003486007916573724
0.2898455262 -0.1003156006 0.0016073119594594684 -0.00036720891702392993
0.2951669693 -0.1003156006 0.0016138399132606238 -0.00037044816839269795
0.3004884422 -0.1003156006 0.0016220771268231537 -0.0003707790035325327
0.3058098853 -0.1003156006 0.0016294573748206291 -0.00037345240382789075
0.3111313581 -0.1003156006 0.0016369025471218302 -0.0003760352715154696
0.3164528012 -0.1003156006 0.0016444310640336467 -0.0003787061892962844
0.3217742741 -0.1003156006 0.0016494924533982356 -0.0003810118910885319
0.3270957172 -0.1003156006 0.001633773140789871 -0.00037203974944257935
0.3324171901 -0.1003156006 0.0016182914172401686 -0.00036313262392779117
0.3377386332 -0.1003156006 0.0016010405489473225 -0.000354236972832204
0.343060106 -0.1003156006 0.0015853507095639255 -0.0003452907895930962
0.3483815491 -0.1003156006 0.0015689064418058698 -0.0003384288921969636
0.353703022 -0.1003156006 0.0015514694167633903 -0.0003374816294409868
0.3590244651 -0.1003156006 0.0015307159886465934 -0.0003482500416709926
0.364345938 -0.1003156006 0.0015102084365378288 -0.00035924965900518773
0.369667381 -0.1003156006 0.001487497829313991 -0.00036886468579529365
0.3749888539 -0.1003156006 0.0014660369967078083 -0.0003790479218242003
0.380310297 -0.1003156006 0.0014437486601168539 -0.00038900805653683157
0.3856317699 -0.1003156006 0.0014250706978108942 -0.00038496485969056115
0.390953213 -0.1003156006 0.0014034499506433856 -0.0003797072897029091
0.3962746859 -0.1003156006 0.0013826382910118707 -0.0003741509957958284
0.4015961289 -0.1003156006 0.0013621457943021737 -0.0003686932633141631
0.4069176018 -0.1003156006 0.001341313079513964 -0.0003635547800273864
0.4122390449 -0.1003156006 0.0013068918805797742 -0.00036233095409943266
0.4175605178 -0.1003156006 0.001251162202952158 -0.0003633948526006138
0.4228819609 -0.1003156006 0.0011939201638828674 -0.0003616436055917488
0.4282034338 -0.1003156006 0.0011374037147589056 -0.00036137067113152006
0.4335248768 -0.1003156006 0.001084744641662302 -0.0003637234928174592
0.4388463497 -0.1003156006 0.0010289638287724863 -0.00037625788075601663
0.4441677928 -0.1003156006 0.0009652645883644764 -0.0004209284221431259
0.4494892657 -0.1003156006 0.0009051926538287262 -0.00046456165491662023
0.4548107088 -0.1003156006 0.0008485978268618899 -0.0005060107287645086
0.4601321816 -0.1003156006 0.0007878587383202023 -0.0005490278938258854
0.4654536247 -0.1003156006 0.0007413609471864616 -0.0005970885708509744
0.4707750976 -0.1003156006 0.0007186382548710077 -0.0006520836110598808
0.4760965407 -0.1003156006 0.0006943016259797511 -0.0007048343674970807
0.4814180136 -0.1003156006 0.000669594078224048 -0.0007574812698511403
0.4867394567 -0.1003156006 0.0006458635484551913 -0.0008100548770825616
0.4920609295 -0.1003156006 0.0006353713799833648 -0.0008424246594127136
0.4973823726 -0.1003156006 0.0006278821363391604 -0.0008703554244580864
0.5027038455 -0.1003156006 0.0006224314085130678 -0.0008983411994987447
0.5080252886 -0.1003156006 0.0006160837523160458 -0.0009260642009037148
0.5133467317 -0.1003156006 0.0005982856285734951 -0.0009464064434731214
0.5186682343 -0.1003156006 0.0005726695233339676 -0.00095304687256306
0.5239896774 -0.1003156006 0.0005464085983656689 -0.0009596169267992319
0.5293111205 -0.1003156006 0.0005191541548628231 -0.0009673504964955526
0.5346325636 -0.1003156006 0.00048053714682226654 -0.0009806752562532362
0.5399540663 -0.1003156006 0.0004237593510041788 -0.0009933465496627131
0.5452755094 -0.1003156006 0.0003658129452095066 -0.0010043324759198681
0.5505969524 -0.1003156006 0.0003088995045698836 -0.0010184282937599196
0.5559183955 -0.1003156006 0.0002438392737747797 -0.0010474236340431778
0.5612398982 -0.1003156006 0.0001681200199472993 -0.0010796834256848208
0.5665613413 -0.1003156006 9.310293056379863e-05 -0.0011121546807652575
0.5718827844 -0.1003156006 2.5484958984649454e-05 -0.0011521996706498664
0.5772042274 -0.1003156006 -4.736197493754561e-05 -0.0012050614152417708
0.5825257301 -0.1003156006 -0.00011990161059459133 -0.0012580684662208855
0.5878471732 -0.1003156006 -0.00018592641351776546 -0.0013149846098597835
0.5931686163 -0.1003156006 -0.00024873816029672536 -0.0013804699887415997
0.5984900594 -0.1003156006 -0.0003108415978085484 -0.0014459078952756938
0.6038115621 -0.1003156006 -0.0003674150065448074 -0.0015147654159642606
0.6091330051 -0.1003156006 -0.0004210109133537572 -0.0015831478030215703
0.6144544482 -0.1003156006 -0.0004702484038053726 -0.0016524791381590407
0.6197758913 -0.1003156006 -0.0005177499540565981 -0.0017196303286376904
0.625097394 -0.1003156006 -0.0005634199911078657 -0.0017840666368079529
0.6304188371 -0.1003156006 -0.0006081387608666704 -0.0018427402369455444
0.6357402802 -0.1003156006 -0.0006541900054450163 -0.0018989707583794509
0.6410617828 -0.1003156006 -0.0007009704781250907 -0.0019507731780397275
0.6463832259 -0.1003156006 -0.0007511942120758953 -0.0019968912778400762
0.651704669 -0.1003156006 -0.0008054763881201655 -0.0020403886701157903
0.6570261121 -0.1003156006 -0.000868874600065444 -0.002081364387911514
0.6623476148 -0.1003156006 -0.0009384636398011108 -0.0021183794572595545
0.6676690578 -0.1003156006 -0.001013946780604069 -0.0021516679120096964
0.6729905009 -0.1003156006 -0.0011051428656228387 -0.002186353997851126
0.678311944 -0.1003156006 -0.0012030151958922252 -0.002222638054269693
0.6836334467 -0.1003156006 -0.0013094866523618 -0.002258675154243383
0.6889548898 -0.1003156006 -0.0014280509865719814 -0.002294204823175494
0.6942763329 -0.1003156006 -0.0015636216723106569 -0.0023363824356807793
0.6995977759 -0.1003156006 -0.001709509026798242 -0.0023826797468448667
0.7049192786 -0.1003156006 -0.0018657336582138771 -0.0024344055457637083
0.7102407217 -0.1003156006 -0.0020414577969236182 -0.002493643474459965
0.7155621648 -0.1003156006 -0.002232426388320091 -0.002566774037146368
0.7208836079 -0.1003156006 -0.0024349377267530534 -0.0026518935351650657
0.7262051105 -0.1003156006 -0.0026514879820369467 -0.0027476899015566234
0.7315265536 -0.1003156006 -0.0028844697853941527 -0.00285907112004992
0.7368479967 -0.1003156006 -0.003139177611644122 -0.002996338673905153
0.7421694398 -0.1003156006 -0.003412401424477572 -0.0031524917910293482
0.7474909425 -0.1003156006 -0.003685381827617265 -0.003330844409731741
0.7528123856 -0.1003156006 -0.003984071799677304 -0.0035422274850323357
0.7581338286 -0.1003156006 -0.004296762408822007 -0.00378612725121043
-0.3008363545 -0.09699654579 0.00035414545285754903 0.0009475450802946766
-0.2955148816 -0.09699654579 0.0003708001543214745 0.0009057622147721512
-0.2901934385 -0.09699654579 0.00038868228888173136 0.0008420795781063606
-0.2848719656 -0.09699654579 0.00038982594422393364 0.000764516264092498
-0.2795505226 -0.09699654579 0.0003893115921326387 0.0006853830842017281
-0.2742290497 -0.09699654579 0.0003909237536828399 0.0006014802027141075
-0.2689076066 -0.09699654579 0.0003856992490760246 0.0005083427257557749
-0.2635861337 -0.09699654579 0.0003877537666038777 0.0004412699669459075
-0.2582646906 -0.09699654579 0.0003952460931098926 0.000457246531997238
-0.2529432178 -0.09699654579 0.000453230960617537 0.00047955068990710305
-0.2476217598 -0.09699654579 0.0005523409261863933 0.0005170774856460012
-0.2423003018 -0.09699654579 0.0006526375753639778 0.000542119618064277
-0.2369788438 -0.09699654579 0.000677229463912122 0.0005417758884525443
-0.2316573858 -0.09699654579 0.0007052106476639748 0.000565536349630641
-0.2263359278 -0.09699654579 0.0007487179031908459 0.0006209632442500753
-0.2210144699 -0.09699654579 0.000713309003690043 0.0005923742756544998
-0.2156930119 -0.09699654579 0.0006240454811120655 0.0005316556914911503
-0.2103715539 -0.09699654579 0.000507031150108706 0.00044877509819611443
-0.2050500959 -0.09699654579 0.0005010329156496068 0.00037014446461591067
-0.1997286379 -0.09699654579 0.0005416119163111267 0.00027622017526293566
-0.19440718 -0.09699654579 0.0005955478410879752 0.00019224020803943755
-0.189085722 -0.09699654579 0.0006723789668203634 0.00017003690533609817
-0.183764264 -0.09699654579 0.0007438860173333456 0.00015686199911029328
-0.178442806 -0.09699654579 0.0008247605870119959 0.00012351945995684368
-0.173121348 -0.09699654579 0.0008618271507480551 0.00011146616086103552
-0.16779989 -0.09699654579 0.0008726669728693256 0.00010538953389686575
-0.1624784321 -0.09699654579 0.0008788120668450862 0.00010184691529475432
-0.1571569741 -0.09699654579 0.0009039659524506269 0.0001080195657042392
-0.1518355161 -0.09699654579 0.0009480144072075643 0.00010601225764902519
-0.1465140581 -0.09699654579 0.0009966322689044687 9.698513823731022e-05
-0.1411926001 -0.09699654579 0.001046846110088801 8.484409358381885e-05
-0.1358711421 -0.09699654579 0.0010946470152135524 6.188327941968292e-05
-0.1305496842 -0.09699654579 0.0011448188266269305 3.638067612787601e-05
-0.1252282262 -0.09699654579 0.0011959585868055174 9.20150013542255e-06
-0.1199067682 -0.09699654579 0.0012597067093111686 -5.714021413531125e-06
-0.1145853102 -0.09699654579 0.0013271108690734862 -1.698273138838606e-05
-0.1092638522 -0.09699654579 0.0013958245466746222 -2.7753092774774652e-05
-0.1039423943 -0.09699654579 0.001465986025077381 -3.4812158731733654e-05
-0.09862093627 -0.09699654579 0.0015139744082346544 -6.676396834983511e-07
-0.09329947084 -0.09699654579 0.0015616673501277604 3.556296738318228e-05
-0.08797801286 -0.09699654579 0.0016091086464840726 7.381228405610408e-05
-0.08265655488 -0.09699654579 0.0016555451243420306 0.00011111319880338503
-0.0773350969 -0.09699654579 0.001672592307605247 0.00015134516070641754
-0.07201363891 -0.09699654579 0.00169060220510209 0.0001931402020904765
-0.06669218093 -0.09699654579 0.0017098513532383041 0.00023516066317589407
-0.06137072667 -0.09699654579 0.00173000250924273 0.00027762299801130955
-0.05604926869 -0.09699654579 0.00173748032472935 0.00030299200808965506
-0.05072781071 -0.09699654579 0.001742794238553482 0.00032209390396775663
-0.045406349 -0.09699654579 0.001746983693184446 0.00034118820742170386
-0.04008489102 -0.09699654579 0.001751198445814978 0.00036098035460804313
-0.03476343304 -0.09699654579 0.001750314770470464 0.00038344453581804443
-0.02944197692 -0.09699654579 0.0017371256519745082 0.00040807932018477046
-0.02412051894 -0.09699654579 0.0017258622556448231 0.00043206394404698837
-0.01879905909 -0.09699654579 0.0017119764872679576 0.00045665497158565483
-0.01347760204 -0.09699654579 0.001699337512765444 0.00048230689491265873
-0.00815614406 -0.09699654579 0.0016579479285676912 0.000495697685729018
-0.00283468538 -0.09699654579 0.0015954817998272202 0.0004984625046388811
0.002486772602 -0.09699654579 0.0015292968056499067 0.0005022944690998138
0.007808230817 -0.09699654579 0.0014630473714677909 0.0005064360594685388
0.0131296888 -0.09699654579 0.001398567552669332 0.0005096980564849785
0.01845114678 -0.09699654579 0.0013428910780069318 0.00045661246381225093
0.02377260476 -0.09699654579 0.0012936190985449528 0.00036044518623905714
0.02909406275 -0.09699654579 0.001241231841566299 0.0002605015882797923
0.03441552073 -0.09699654579 0.0011873242504275682 0.00015984883536345455
0.03973697871 -0.09699654579 0.0011385840509806602 6.349341317019342e-05
0.04505843669 -0.09699654579 0.0011338859620518033 -2.786259756031008e-05
0.05037989467 -0.09699654579 0.0012045124928073076 -0.00011435588914262645
0.05570135266 -0.09699654579 0.0012756638851635872 -0.0002016910630718264
0.06102281436 -0.09699654579 0.0013504670908693057 -0.00029189111863327856
0.06634426862 -0.09699654579 0.0014201769861314796 -0.0003774313435765804
0.0716657266 -0.09699654579 0.0014905634545458377 -0.00046292642719218186
0.07698718458 -0.09699654579 0.0016081007171246493 -0.0004460196653722501
0.08230864257 -0.09699654579 0.0017306352198028002 -0.00042272023446096753
0.08763010055 -0.09699654579 0.0018489694014810828 -0.000400310164981482
0.09295155853 -0.09699654579 0.001966131513004798 -0.0003781976814437815
0.09827301651 -0.09699654579 0.002085008810196472 -0.0003557963872787783
0.1035944745 -0.09699654579 0.0021639146272775097 -0.00030143089884256455
0.1089159325 -0.09699654579 0.00216220286701257 -0.00018778673681248568
0.1142373979 -0.09699654579 0.002162746970125103 -8.093878865957894e-05
0.1195588559 -0.09699654579 0.00216454520213002 2.1285675148958076e-05
0.1248803139 -0.09699654579 0.0021659724698490646 0.0001235243443607153
0.1302017719 -0.09699654579 0.002166595440857685 0.00022951601194638705
0.1355232298 -0.09699654579 0.002092834009790039 0.00027413397331670883
0.1408446878 -0.09699654579 0.001979576804166181 0.00027393444514167464
0.1461661458 -0.09699654579 0.0018669978598077517 0.000274129092691568
0.1514876038 -0.09699654579 0.0017525534153901181 0.0002748767104099385
0.1568090618 -0.09699654579 0.0016389014857493061 0.00027561374556304063
0.1621305197 -0.09699654579 0.0015318793991282937 0.0002763600506710829
0.1674519777 -0.09699654579 0.0014925186788967465 0.00020888093714130308
0.1727734357 -0.09699654579 0.0014775986560772363 0.00011508730354059619
0.1780948937 -0.09699654579 0.001462542005895167 1.7562372187278693e-05
0.1834163517 -0.09699654579 0.0014477490770686853 -7.826011109092509e-05
0.1887378097 -0.09699654579 0.0014336993157447436 -0.0001667187313338393
0.1940592676 -0.09699654579 0.0014190508524349072 -0.00025509680230988054
0.1993807256 -0.09699654579 0.0014591977356696595 -0.00027971062356885434
0.2047021836 -0.09699654579 0.0015165155904817208 -0.0002865001558646908
0.2100236416 -0.09699654579 0.0015686858596526126 -0.00029558069937917706
0.2153450996 -0.09699654579 0.0016197375952724084 -0.0003045197862872002
0.2206665576 -0.09699654579 0.0016714824899611673 -0.0003133677936881035
0.2259880155 -0.09699654579 0.0017227964700414265 -0.00032228412954853937
0.2313094735 -0.09699654579 0.0017282340007479852 -0.0003117717516971611
0.2366309315 -0.09699654579 0.0017200270763257175 -0.00029821569934279874
0.2419523895 -0.09699654579 0.0017122761287357167 -0.0002846575622685687
0.2472738475 -0.09699654579 0.0017045603728669176 -0.0002710603235445669
0.2525953054 -0.09699654579 0.0016984055797000955 -0.0002586273498109435
0.2579167783 -0.09699654579 0.001693175120377452 -0.0002475379740294369
0.2632382214 -0.09699654579 0.0016816437977363859 -0.0002643972268397043
0.2685596943 -0.09699654579 0.001670257038049793 -0.0002882536523525493
0.2738811374 -0.09699654579 0.0016583350645518764 -0.00030998636131574154
0.2792026103 -0.09699654579 0.0016471857164854099 -0.0003314907391087497
0.2845240533 -0.09699654579 0.0016333707260963333 -0.00035205010942563453
0.2898455262 -0.09699654579 0.001622339024764913 -0.00037424683904992574
0.2951669693 -0.09699654579 0.0016298933578778596 -0.00037548572969434146
0.3004884422 -0.09699654579 0.0016421906236534678 -0.00037554228206306987
0.3058098853 -0.09699654579 0.0016518337447923091 -0.0003754582283397073
0.3111313581 -0.09699654579 0.0016618280489490735 -0.00037527070358143745
0.3164528012 -0.09699654579 0.0016717385810699206 -0.00037545881731136774
0.3217742741 -0.09699654579 0.001678505185003002 -0.00037677238129302796
0.3270957172 -0.09699654579 0.001662030277919306 -0.00036603510523742854
0.3324171901 -0.09699654579 0.0016455632759948386 -0.00035514370627949185
0.3377386332 -0.09699654579 0.0016281806947815256 -0.00034516571876286973
0.343060106 -0.09699654579 0.0016120123745612261 -0.0003356452773867331
0.3483815491 -0.09699654579 0.001596163738585862 -0.00032606960001906645
0.353703022 -0.09699654579 0.001579531911440325 -0.0003246252937168249
0.3590244651 -0.09699654579 0.001560963905964572 -0.0003373269972461204
0.364345938 -0.09699654579 0.0015415212152690937 -0.00034857141997266764
0.369667381 -0.09699654579 0.001521768636110913 -0.0003602751352477071
0.3749888539 -0.09699654579 0.001502097137649833 -0.00037178599411118374
0.380310297 -0.09699654579 0.0014802621203951346 -0.0003826970847368574
0.3856317699 -0.09699654579 0.0014614734720954665 -0.0003772985688595928
0.390953213 -0.09699654579 0.0014422170233647424 -0.00036781195717602405
0.3962746859 -0.09699654579 0.0014254439252294456 -0.0003558450048260395
0.4015961289 -0.09699654579 0.0014055376739649295 -0.0003475736626259397
0.4069176018 -0.09699654579 0.0013861823714995279 -0.0003400475576284497
0.4122390449 -0.09699654579 0.0013489177576380617 -0.00033293955769035053
0.4175605178 -0.09699654579 0.0012851153401771723 -0.00032693269178024403
0.4228819609 -0.09699654579 0.001225996601350733 -0.00032607280743047746
0.4282034338 -0.09699654579 0.0011672847186425886 -0.00032506198409571846
0.4335248768 -0.09699654579 0.0011081555556928077 -0.0003241320756772738
0.4388463497 -0.09699654579 0.0010455329802039734 -0.00033729979994918876
0.4441677928 -0.09699654579 0.0009783133601394501 -0.00038423241168289787
0.4494892657 -0.09699654579 0.0009095818002226337 -0.0004308346102909037
0.4548107088 -0.09699654579 0.0008432531022806321 -0.00047741122122210033
0.4601321816 -0.09699654579 0.0007780655558044951 -0.0005232315330897328
0.4654536247 -0.09699654579 0.0007328182844032454 -0.0005717726599690742
0.4707750976 -0.09699654579 0.0007103390716169344 -0.000629425252360671
0.4760965407 -0.09699654579 0.0006884512684310217 -0.0006904960533140379
0.4814180136 -0.09699654579 0.0006675613695352666 -0.0007482577487746349
0.4867394567 -0.09699654579 0.000643742069518978 -0.0008041792035681857
0.4920609295 -0.09699654579 0.0006369316287397058 -0.0008371422498962047
0.4973823726 -0.09699654579 0.000634604803619348 -0.0008643360422104456
0.5027038455 -0.09699654579 0.0006297906494216581 -0.0008901108311755107
0.5080252886 -0.09699654579 0.0006273855457670209 -0.0009173210704640292
0.5133467317 -0.09699654579 0.0006128737002517072 -0.0009322772557283125
0.5186682343 -0.09699654579 0.0005857224310478318 -0.000933437799960116
0.5239896774 -0.09699654579 0.0005590674158790537 -0.000939973439681348
0.5293111205 -0.09699654579 0.000532317994219333 -0.0009438112407899854
0.5346325636 -0.09699654579 0.0004891693166742793 -0.0009475759849021174
0.5399540663 -0.09699654579 0.0004285674160329543 -0.0009573091331567068
0.5452755094 -0.09699654579 0.0003709747625457192 -0.0009683784744588755
0.5505969524 -0.09699654579 0.00030976409061596804 -0.0009781540451622042
0.5559183955 -0.09699654579 0.0002340044318761808 -0.0010029943509432232
0.5612398982 -0.09699654579 0.00015864525578389464 -0.0010349195557876325
0.5665613413 -0.09699654579 8.207885161358459e-05 -0.0010668872703147752
0.5718827844 -0.09699654579 2.190802856321583e-06 -0.0011070348613800454
0.5772042274 -0.09699654579 -7.257981106060522e-05 -0.0011603759556540305
0.5825257301 -0.09699654579 -0.00014634031910589312 -0.0012139131159940527
0.5878471732 -0.09699654579 -0.00022001810567934035 -0.0012745118126844001
0.5931686163 -0.09699654579 -0.00028372553152842037 -0.0013415543344905412
0.5984900594 -0.09699654579 -0.00034886319736798197 -0.0014104558171795113
0.6038115621 -0.09699654579 -0.00040471042703686384 -0.0014805763457143328
0.6091330051 -0.09699654579 -0.00045608734957763706 -0.0015522771071097145
0.6144544482 -0.09699654579 -0.0005074378515394747 -0.0016222825031282822
0.6197758913 -0.09699654579 -0.000551526755847217 -0.001689807544649117
0.625097394 -0.09699654579 -0.0005952420801705141 -0.0017556702420315985
0.6304188371 -0.09699654579 -0.0006381774172267323 -0.0018149628095456135
0.6357402802 -0.09699654579 -0.0006789032865836999 -0.0018704432622022084
0.6410617828 -0.09699654579 -0.0007235071212286219 -0.0019210533240724248
0.6463832259 -0.09699654579 -0.0007714720318640069 -0.0019652018894420176
0.651704669 -0.09699654579 -0.000824312546120209 -0.002004904942143348
0.6570261121 -0.09699654579 -0.0008861116659469834 -0.0020410514374738856
0.6623476148 -0.09699654579 -0.0009556969550041546 -0.002074188150178515
0.6676690578 -0.09699654579 -0.0010304007723915183 -0.0021025588969954814
0.6729905009 -0.09699654579 -0.0011187263979856577 -0.0021308153642985027
0.678311944 -0.09699654579 -0.0012152303542018999 -0.0021568272557299386
0.6836334467 -0.09699654579 -0.001321409927775727 -0.002184584154014304
0.6889548898 -0.09699654579 -0.0014422892128388726 -0.002214597582556943
0.6942763329 -0.09699654579 -0.0015792422570005424 -0.0022479230071785505
0.6995977759 -0.09699654579 -0.0017288424843271597 -0.0022834952751390187
0.7049192786 -0.09699654579 -0.0018911227903734237 -0.002326423051224005
0.7102407217 -0.09699654579 -0.00207183813231711 -0.002378346925756115
0.7155621648 -0.09699654579 -0.002268492671546028 -0.0024439803136248046
0.7208836079 -0.09699654579 -0.0024834204716015574 -0.0025166428198275417
0.7262051105 -0.09699654579 -0.002714785932319648 -0.002603508779317586
0.7315265536 -0.09699654579 -0.002956697941468083 -0.0027065250658438417
0.7368479967 -0.09699654579 -0.0032223244652428745 -0.0028258582852083614
0.7421694398 -0.09699654579 -0.0035050592030399733 -0.002973839075575531
0.7474909425 -0.09699654579 -0.0038073616311868853 -0.0031417698849506384
0.7528123856 -0.09699654579 -0.0041226200976552125 -0.003345459960199005
0.7581338286 -0.09699654579 -0.004452939303214528 -0.0035849450211210836
-0.3008363545 -0.09367749095 0.00035718614190468397 0.0009371916695616835
-0.2955148816 -0.09367749095 0.0003734493831340342 0.0008973693190897235
-0.2901934385 -0.09367749095 0.00039015601991374455 0.0008458721802248339
-0.2848719656 -0.09367749095 0.00039994257364557925 0.00077767220753516
-0.2795505226 -0.09367749095 0.00040220914425660406 0.0007015397408522946
-0.2742290497 -0.09367749095 0.00038500694773948804 0.0006162496773040178
-0.2689076066 -0.09367749095 0.00037268587471484915 0.0005272678341377112
-0.2635861337 -0.09367749095 0.00032753383748407793 0.0004283289327481607
-0.2582646906 -0.09367749095 0.0003549887458464481 0.000423648778685928
-0.2529432178 -0.09367749095 0.000400258991804595 0.0004452259308745834
-0.2476217598 -0.09367749095 0.000493815408788851 0.00047001354351166805