VARIABLES = X,Y,phix,phiy
ZONE I=200,J=200,F=POINT 
-0.3008363545 -0.1003156006 -0.0007303502519332977 0.0015060402915384953
-0.2955148816 -0.1003156006 -0.0007120705654743728 0.0014994783186786011
-0.2901934385 -0.1003156006 -0.0006977865242487494 0.0014407320144206267
-0.2848719656 -0.1003156006 -0.0006795885368809689 0.0013792410971747993
-0.2795505226 -0.1003156006 -0.0006657040646455817 0.0012978088209999357
-0.2742290497 -0.1003156006 -0.0006601608081303039 0.001183501072851624
-0.2689076066 -0.1003156006 -0.0006667224498989782 0.0010644293766906817
-0.2635861337 -0.1003156006 -0.0006765883480150005 0.0010151191800626294
-0.2582646906 -0.1003156006 -0.0006949492977526023 0.000986884215546369
-0.2529432178 -0.1003156006 -0.0007186723846412127 0.0009573632309208377
-0.2476217598 -0.1003156006 -0.0007426211691402274 0.0009513335938302644
-0.2423003018 -0.1003156006 -0.0006885698798960926 0.0009497387346594319
-0.2369788438 -0.1003156006 -0.0005865835902821712 0.0009415165209028406
-0.2316573858 -0.1003156006 -0.0004891506161970371 0.0009306387243708567
-0.2263359278 -0.1003156006 -0.0003954400706242397 0.000913789997054989
-0.2210144699 -0.1003156006 -0.00040872113552084045 0.0008425479043825677
-0.2156930119 -0.1003156006 -0.00042963202850785677 0.0007595709585126566
-0.2103715539 -0.1003156006 -0.0004615058434070963 0.0006616747239050724
-0.2050500959 -0.1003156006 -0.0004007635170524147 0.0005863893125502167
-0.1997286379 -0.1003156006 -0.00033671276489186195 0.0004949786792869536
-0.19440718 -0.1003156006 -0.00024934089671753754 0.0003996559577773647
-0.189085722 -0.1003156006 -0.0001417237368399564 0.0003559135471692688
-0.183764264 -0.1003156006 -1.6759021549771584e-05 0.000319958315796298
-0.178442806 -0.1003156006 0.0001099332296610647 0.0002981071489190343
-0.173121348 -0.1003156006 0.0001723820015298299 0.0003231599360353658
-0.16779989 -0.1003156006 0.00021698064388765657 0.00035522782209219483
-0.1624784321 -0.1003156006 0.000257649615673156 0.00037739669194445665
-0.1571569741 -0.1003156006 0.0002953868309951706 0.0004065247009072085
-0.1518355161 -0.1003156006 0.000329071649745332 0.00043485865137198076
-0.1465140581 -0.1003156006 0.00036380594207569434 0.00046198653764933375
-0.1411926001 -0.1003156006 0.00040219379580712334 0.000478398084644103
-0.1358711421 -0.1003156006 0.000451331378543504 0.00046347563015748
-0.1305496842 -0.1003156006 0.0005007293469711834 0.00044857755335000994
-0.1252282262 -0.1003156006 0.0005493324811525156 0.0004303771015285563
-0.1199067682 -0.1003156006 0.0005888331233200422 0.0004269472636323158
-0.1145853102 -0.1003156006 0.0006245676315152533 0.0004259530644313899
-0.1092638522 -0.1003156006 0.0006551776612172337 0.0004270016776903501
-0.1039423943 -0.1003156006 0.0006875517523811725 0.00042967136854107967
-0.09862093627 -0.1003156006 0.0007076149664443018 0.0004452465980668372
-0.09329947084 -0.1003156006 0.0007269797315198963 0.00045969659822471146
-0.08797801286 -0.1003156006 0.0007473585936881318 0.0004741468331666954
-0.08265655488 -0.1003156006 0.0007672648395904027 0.0004884155579365832
-0.0773350969 -0.1003156006 0.0007975661889732537 0.0004886334483962998
-0.07201363891 -0.1003156006 0.0008268773184051913 0.000488770584719179
-0.06669218093 -0.1003156006 0.0008573195165407838 0.0004889200560135169
-0.06137072667 -0.1003156006 0.0008876406567483 0.0004900848101741995
-0.05604926869 -0.1003156006 0.0009092393528093173 0.0004903259936598465
-0.05072781071 -0.1003156006 0.0009290768553582238 0.0004892104102738495
-0.045406349 -0.1003156006 0.0009484825646446319 0.0004885098703972631
-0.04008489102 -0.1003156006 0.000969696650151993 0.00048721529337663266
-0.03476343304 -0.1003156006 0.0009862015981064603 0.00048741624429382216
-0.02944197692 -0.1003156006 0.0010005293224324082 0.00048817109921528976
-0.02412051894 -0.1003156006 0.0010132476685431316 0.0004891998421213839
-0.01879905909 -0.1003156006 0.0010272928371645115 0.0004904850459677007
-0.01347760204 -0.1003156006 0.001040550630344401 0.0004914955358758903
-0.00815614406 -0.1003156006 0.0010408931878869423 0.0004866440797316502
-0.00283468538 -0.1003156006 0.0010316649600643083 0.0004764580124222333
0.002486772602 -0.1003156006 0.0010181746952361303 0.0004676722496866917
0.007808230817 -0.1003156006 0.0010050598410227196 0.0004588988984132617
0.0131296888 -0.1003156006 0.0009950962957880917 0.00044892906819755235
0.01845114678 -0.1003156006 0.0009927473081663232 0.00041602044255900747
0.02377260476 -0.1003156006 0.0009969718039931012 0.00036417575130212474
0.02909406275 -0.1003156006 0.0009987795438189174 0.0003098778388973413
0.03441552073 -0.1003156006 0.0010008728342833658 0.000255581107666419
0.03973697871 -0.1003156006 0.0010047448443796455 0.00020343329987980484
0.04505843669 -0.1003156006 0.0010257692881572697 0.00015828467813487837
0.05037989467 -0.1003156006 0.0010815484342279705 0.00012115482475392845
0.05570135266 -0.1003156006 0.00113799281195222 8.225606275498547e-05
0.06102281436 -0.1003156006 0.0011944769295488301 4.2767768823814676e-05
0.06634426862 -0.1003156006 0.0012510261693557093 5.061302618905892e-06
0.0716657266 -0.1003156006 0.0013047122204611298 -3.16368066954023e-05
0.07698718458 -0.1003156006 0.0013783570612954546 -2.4433554863751914e-05
0.08230864257 -0.1003156006 0.0014540105757967225 -1.3775492784397592e-05
0.08763010055 -0.1003156006 0.0015322031087452882 -2.66686059353668e-06
0.09295155853 -0.1003156006 0.0016075263352004715 8.04345020725235e-06
0.09827301651 -0.1003156006 0.0016817449079512931 1.8514480387623136e-05
0.1035944745 -0.1003156006 0.0017361944307183364 4.682981135342517e-05
0.1089159325 -0.1003156006 0.0017555926750632063 0.00011082604522218353
0.1142373979 -0.1003156006 0.0017729422363201924 0.00017482048018251778
0.1195588559 -0.1003156006 0.001791996517535311 0.00023202956650056534
0.1248803139 -0.1003156006 0.001810114798714917 0.0002917210165842759
0.1302017719 -0.1003156006 0.0018286879074751125 0.0003529954947834353
0.1355232298 -0.1003156006 0.0017981278090203332 0.0003849513679033566
0.1408446878 -0.1003156006 0.0017343285946397778 0.0003942768253779315
0.1461661458 -0.1003156006 0.0016747185234479572 0.00040311124450865746
0.1514876038 -0.1003156006 0.0016161694165370978 0.000411924989959553
0.1568090618 -0.1003156006 0.0015577833358795716 0.00042074344097517186
0.1621305197 -0.1003156006 0.001498522748532249 0.00042946323832645096
0.1674519777 -0.1003156006 0.0014749173879480782 0.00038373471854536513
0.1727734357 -0.1003156006 0.0014638157406923259 0.00031308469771233776
0.1780948937 -0.1003156006 0.0014522832491555152 0.0002424209588231136
0.1834163517 -0.1003156006 0.0014423612321789899 0.00017174040939708067
0.1887378097 -0.1003156006 0.0014322292028704953 0.00010354672427956444
0.1940592676 -0.1003156006 0.0014224711812107493 3.9539254633866586e-05
0.1993807256 -0.1003156006 0.0014632396675478925 4.646728374985979e-06
0.2047021836 -0.1003156006 0.0015202912150728445 -2.0412775786367025e-05
0.2100236416 -0.1003156006 0.0015773754702131573 -4.568015208868107e-05
0.2153450996 -0.1003156006 0.0016295400378642767 -7.004623097440235e-05
0.2206665576 -0.1003156006 0.0016842842554831137 -9.462330180815797e-05
0.2259880155 -0.1003156006 0.001737843785303273 -0.00011906254285203612
0.2313094735 -0.1003156006 0.0017743562745325104 -0.0001168779530330641
0.2366309315 -0.1003156006 0.0018059236763453177 -0.00010813426495675619
0.2419523895 -0.1003156006 0.0018365098485174569 -9.99832748778282e-05
0.2472738475 -0.1003156006 0.0018681396735175926 -9.162539901051001e-05
0.2525953054 -0.1003156006 0.0018977098171283878 -8.3589364473116e-05
0.2579167783 -0.1003156006 0.001927359648574563 -7.589686459499318e-05
0.2632382214 -0.1003156006 0.0019501442244063939 -6.706845513576338e-05
0.2685596943 -0.1003156006 0.0019740952422037236 -5.7762763060290505e-05
0.2738811374 -0.1003156006 0.0019978865821592587 -4.905956660554676e-05
0.2792026103 -0.1003156006 0.002020612215804519 -3.973682955132588e-05
0.2845240533 -0.1003156006 0.0020410535724350613 -3.075350864614276e-05
0.2898455262 -0.1003156006 0.0020614348196111715 -2.185713495800471e-05
0.2951669693 -0.1003156006 0.0020740949076769803 1.8043967771141507e-05
0.3004884422 -0.1003156006 0.002085055331812488 6.274689499838115e-05
0.3058098853 -0.1003156006 0.0020913472194664475 0.00010199455459228017
0.3111313581 -0.1003156006 0.0020993226526919984 0.00014116220798394283
0.3164528012 -0.1003156006 0.0021062493656896176 0.00018041459477229153
0.3217742741 -0.1003156006 0.00211141105826468 0.00021981480033747807
0.3270957172 -0.1003156006 0.0020636978684976446 0.0002545797218122159
0.3324171901 -0.1003156006 0.0020150613574725167 0.0002895338033841661
0.3377386332 -0.1003156006 0.001968208083372889 0.00032448468785505627
0.343060106 -0.1003156006 0.0019205859349406469 0.0003594188757571794
0.3483815491 -0.1003156006 0.0018754585857623759 0.00038947557680013995
0.353703022 -0.1003156006 0.001825050125665712 0.0004039272192561664
0.3590244651 -0.1003156006 0.0017632017204990914 0.00038365173031967213
0.364345938 -0.1003156006 0.0016994164435420133 0.0003634625353913777
0.369667381 -0.1003156006 0.0016416054900201158 0.0003452502525302593
0.3749888539 -0.1003156006 0.0015820976701963845 0.0003263781527419326
0.380310297 -0.1003156006 0.0015234324088511126 0.0003073214360805012
0.3856317699 -0.1003156006 0.0014887437873594722 0.0002732114583357634
0.390953213 -0.1003156006 0.0014607744946540252 0.0002370393509910379
0.3962746859 -0.1003156006 0.00143281363225738 0.0002011459846702839
0.4015961289 -0.1003156006 0.00140724627076809 0.00016520993250599382
0.4069176018 -0.1003156006 0.0013810955496860726 0.00012924327115838914
0.4122390449 -0.1003156006 0.0013614228755755228 0.0001007885518868827
0.4175605178 -0.1003156006 0.0013521698234555436 7.851109563284746e-05
0.4228819609 -0.1003156006 0.001342961583369387 5.655548051096033e-05
0.4282034338 -0.1003156006 0.0013336469824447195 3.389970965141663e-05
0.4335248768 -0.1003156006 0.0013213128034458093 1.2422643299452125e-05
0.4388463497 -0.1003156006 0.0013100324121078709 -7.326941250861643e-06
0.4441677928 -0.1003156006 0.0012935993739086387 -2.1993497715323834e-05
0.4494892657 -0.1003156006 0.0012764009951082306 -3.697475421228254e-05
0.4548107088 -0.1003156006 0.001261020193596828 -5.227165349395817e-05
0.4601321816 -0.1003156006 0.001243656576403678 -6.73626719359609e-05
0.4654536247 -0.1003156006 0.0012252366360638398 -7.954122544512973e-05
0.4707750976 -0.1003156006 0.001203013366680374 -8.872238943639975e-05
0.4760965407 -0.1003156006 0.001179228490877536 -9.904959855666721e-05
0.4814180136 -0.1003156006 0.0011563564016995986 -0.00010946300514852023
0.4867394567 -0.1003156006 0.0011343892556101146 -0.00011956763803882658
0.4920609295 -0.1003156006 0.0011006031196766086 -0.00012353464978570215
0.4973823726 -0.1003156006 0.0010647373257524184 -0.00012736293383949836
0.5027038455 -0.1003156006 0.001030007510644013 -0.00013107147925962956
0.5080252886 -0.1003156006 0.0009949521263432914 -0.00013478852758966125
0.5133467317 -0.1003156006 0.0009502168138800557 -0.00014568079558832547
0.5186682343 -0.1003156006 0.0008886611102918223 -0.00015878457904003378
0.5239896774 -0.1003156006 0.0008261942929780932 -0.00017195755489091984
0.5293111205 -0.1003156006 0.0007666094330820593 -0.00018592210304510596
0.5346325636 -0.1003156006 0.0007033106696007638 -0.0002128864027148053
0.5399540663 -0.1003156006 0.000627106266441959 -0.0002518743501691724
0.5452755094 -0.1003156006 0.0005504320971797465 -0.00029079326287152063
0.5505969524 -0.1003156006 0.00047680371794092447 -0.00032995806977516854
0.5559183955 -0.1003156006 0.0004074926938567303 -0.0003883578112664606
0.5612398982 -0.1003156006 0.0003335379841964829 -0.0004548951662685429
0.5665613413 -0.1003156006 0.0002600052733634895 -0.0005209423804776441
0.5718827844 -0.1003156006 0.00019789303754418652 -0.0005917216758986741
0.5772042274 -0.1003156006 0.00013789147876760514 -0.0006756284766420495
0.5825257301 -0.1003156006 7.939322103149452e-05 -0.000759941199169756
0.5878471732 -0.1003156006 2.4865625851691615e-05 -0.0008456735416050954
0.5931686163 -0.1003156006 -2.0949817776095907e-05 -0.0009371176425431594
0.5984900594 -0.1003156006 -6.798883629245633e-05 -0.001028879593164492
0.6038115621 -0.1003156006 -0.00010681028416104734 -0.0011223250457058293
0.6091330051 -0.1003156006 -0.00014373203447902848 -0.0012146817140109552
0.6144544482 -0.1003156006 -0.00017723098564641814 -0.001306657087345323
0.6197758913 -0.1003156006 -0.00020864330471572236 -0.001396082441533378
0.625097394 -0.1003156006 -0.00024010950043181238 -0.0014832258684670707
0.6304188371 -0.1003156006 -0.0002704873319264997 -0.0015655257956583761
0.6357402802 -0.1003156006 -0.00030352531289076285 -0.0016470983114632435
0.6410617828 -0.1003156006 -0.00033709459859067976 -0.0017258166916223306
0.6463832259 -0.1003156006 -0.0003752504490497981 -0.001801158960899289
0.651704669 -0.1003156006 -0.000416271509213137 -0.0018747982559938487
0.6570261121 -0.1003156006 -0.00046441565946786587 -0.001949804759473939
0.6623476148 -0.1003156006 -0.000521717347245979 -0.0020236871357749726
0.6676690578 -0.1003156006 -0.0005830387989843916 -0.0020967034409258034
0.6729905009 -0.1003156006 -0.0006578278749302844 -0.002174949756968831
0.678311944 -0.1003156006 -0.0007379605596154342 -0.002258362542098859
0.6836334467 -0.1003156006 -0.0008246571774413497 -0.002344637591047612
0.6889548898 -0.1003156006 -0.0009235511905136593 -0.0024378558437873647
0.6942763329 -0.1003156006 -0.001032831970761215 -0.0025400556049606153
0.6995977759 -0.1003156006 -0.0011497292223192914 -0.00265067735608338
0.7049192786 -0.1003156006 -0.0012740614581974795 -0.00277100205811692
0.7102407217 -0.1003156006 -0.001412772954226813 -0.00290388506721126
0.7155621648 -0.1003156006 -0.0015623460377254701 -0.0030547730251662816
0.7208836079 -0.1003156006 -0.0017169572327223142 -0.003223180524455539
0.7262051105 -0.1003156006 -0.0018808627614801128 -0.003408124934135924
0.7315265536 -0.1003156006 -0.0020512648931314036 -0.003617773162708826
0.7368479967 -0.1003156006 -0.00223285246699047 -0.0038580611680908315
0.7421694398 -0.1003156006 -0.0024183692625803638 -0.004125035724389897
0.7474909425 -0.1003156006 -0.0025930658006172048 -0.004412446583082671
0.7528123856 -0.1003156006 -0.00277355347295342 -0.004742604692356221
0.7581338286 -0.1003156006 -0.002951359197671417 -0.005107413892116059
-0.3008363545 -0.09699654579 -0.0007592118130616009 0.0014940922842202763
-0.2955148816 -0.09699654579 -0.0007385690225405428 0.0014917727888352885
-0.2901934385 -0.09699654579 -0.0006953504996172588 0.0014682368492985175
-0.2848719656 -0.09699654579 -0.0006774151292462617 0.001399604743633983
-0.2795505226 -0.09699654579 -0.0006646339347392057 0.0013179637207003582
-0.2742290497 -0.09699654579 -0.0006596412357276523 0.0012167372712094198
-0.2689076066 -0.09699654579 -0.000675592271282134 0.0010839329687469337
-0.2635861337 -0.09699654579 -0.0006907947759364932 0.0009696638959077569
-0.2582646906 -0.09699654579 -0.0007200940011863879 0.0009367091791191654
-0.2529432178 -0.09699654579 -0.000743399457690755 0.0009206520595222934
-0.2476217598 -0.09699654579 -0.0007712650574257883 0.0009358472726801327
-0.2423003018 -0.09699654579 -0.0007546098228353144 0.000950871717781896
-0.2369788438 -0.09699654579 -0.0006636459942672238 0.000940766590551233
-0.2316573858 -0.09699654579 -0.0005607121925813227 0.0009287772727457478
-0.2263359278 -0.09699654579 -0.00044432181573979707 0.0009050544612235197
-0.2210144699 -0.09699654579 -0.00044058387775565 0.0008354927033795759
-0.2156930119 -0.09699654579 -0.0004713591187830208 0.0007412211332173648
-0.2103715539 -0.09699654579 -0.000520670776335696 0.0006267632450376917
-0.2050500959 -0.09699654579 -0.0004794828754360814 0.0005292653053652512
-0.1997286379 -0.09699654579 -0.00039123321400480736 0.0004338731961608897
-0.19440718 -0.09699654579 -0.0002957382971770731 0.0003434734021919402
-0.189085722 -0.09699654579 -0.00015995102143425807 0.00032704741958995573
-0.183764264 -0.09699654579 -2.9746700248703325e-05 0.00032300101035117365
-0.178442806 -0.09699654579 0.00011993775350558387 0.00032530114608641966
-0.173121348 -0.09699654579 0.00019338817842122678 0.00034649281859615874
-0.16779989 -0.09699654579 0.00023394145227579325 0.0003624475169938174
-0.1624784321 -0.09699654579 0.0002726275215880753 0.0003680749224461235
-0.1571569741 -0.09699654579 0.00030938269387484926 0.00040917009300426053
-0.1518355161 -0.09699654579 0.0003517816086873114 0.0004347050040576466
-0.1465140581 -0.09699654579 0.0004007350981147353 0.0004565601330784975
-0.1411926001 -0.09699654579 0.0004516030900102795 0.00046904932217234585
-0.1358711421 -0.09699654579 0.0005007024320368986 0.0004502956221361251
-0.1305496842 -0.09699654579 0.0005513231712029058 0.00042943106593069556
-0.1252282262 -0.09699654579 0.0006039189522210564 0.00040707492512121374
-0.1199067682 -0.09699654579 0.0006361856847553764 0.0004052106302495532
-0.1145853102 -0.09699654579 0.0006680660256774386 0.0004071922013510275
-0.1092638522 -0.09699654579 0.000697492455891006 0.00041048045683242303
-0.1039423943 -0.09699654579 0.0007214397273452143 0.00041928506823384667
-0.09862093627 -0.09699654579 0.0007414628698466204 0.0004333628831485686
-0.09329947084 -0.09699654579 0.000761097921263588 0.0004468482696251214
-0.08797801286 -0.09699654579 0.0007802283663533824 0.0004596679165099412
-0.08265655488 -0.09699654579 0.0008005182219947064 0.0004731480779845736
-0.0773350969 -0.09699654579 0.0008306377703910181 0.00047450057451968317
-0.07201363891 -0.09699654579 0.0008605145818094883 0.0004767931524002901
-0.06669218093 -0.09699654579 0.0008909670675021991 0.0004793538094694235
-0.06137072667 -0.09699654579 0.0009223198964645648 0.0004820969629979669
-0.05604926869 -0.09699654579 0.0009444658837628622 0.00048247246556507825
-0.05072781071 -0.09699654579 0.000965360795837727 0.00048114898552389517
-0.045406349 -0.09699654579 0.000986435504045282 0.00047982994134303003
-0.04008489102 -0.09699654579 0.0010072016596206581 0.00047855385032128365
-0.03476343304 -0.09699654579 0.0010239359359814442 0.00047947149970130597
-0.02944197692 -0.09699654579 0.0010367486895662256 0.00048244978697090606
-0.02412051894 -0.09699654579 0.0010486480230568547 0.00048513486139992705
-0.01879905909 -0.09699654579 0.0010606369646114287 0.00048806380997122286
-0.01347760204 -0.09699654579 0.0010718170905095238 0.0004913887712402003
-0.00815614406 -0.09699654579 0.0010665066951997691 0.0004887865461100789
-0.00283468538 -0.09699654579 0.0010492851833408122 0.000480784237682042
0.002486772602 -0.09699654579 0.0010289734714891642 0.00047305706755110396
0.007808230817 -0.09699654579 0.0010087740577659544 0.0004653918963192092
0.0131296888 -0.09699654579 0.0009898818043533584 0.0004575402189567589
0.01845114678 -0.09699654579 0.0009809670688503405 0.00042136005846351074
0.02377260476 -0.09699654579 0.0009802495590245561 0.00036340844978158645
0.02909406275 -0.09699654579 0.0009775324917431732 0.00030334941668023227
0.03441552073 -0.09699654579 0.0009739517062904697 0.00024282405548641314
0.03973697871 -0.09699654579 0.0009727723041821487 0.00018484069228487772
0.04505843669 -0.09699654579 0.0009923847487890956 0.00013375696265052034
0.05037989467 -0.09699654579 0.001051440825037236 9.158485027678275e-05
0.05570135266 -0.09699654579 0.0011109050492959177 4.920035267354414e-05
0.06102281436 -0.09699654579 0.0011720286936700774 5.382403116842484e-06
0.06634426862 -0.09699654579 0.0012307568615018592 -3.632954163267951e-05
0.0716657266 -0.09699654579 0.001289474192406947 -7.81029752588028e-05
0.07698718458 -0.09699654579 0.0013731303757944758 -6.880483305772126e-05
0.08230864257 -0.09699654579 0.0014584552632452205 -5.65190831243885e-05
0.08763010055 -0.09699654579 0.0015418607691311055 -4.444651092021984e-05
0.09295155853 -0.09699654579 0.0016260034417980918 -3.2538337052475346e-05
0.09827301651 -0.09699654579 0.0017100135576821201 -2.054385809349155e-05
0.1035944745 -0.09699654579 0.0017709496210139657 1.403485557406196e-05
0.1089159325 -0.09699654579 0.0017897451580653142 8.969242108532987e-05
0.1142373979 -0.09699654579 0.001808917795249409 0.00016124106705444588
0.1195588559 -0.09699654579 0.0018282056767481925 0.00022963300909512114
0.1248803139 -0.09699654579 0.0018457398860015838 0.00029805026577978724
0.1302017719 -0.09699654579 0.0018650729359987214 0.0003691948056031685
0.1355232298 -0.09699654579 0.001825579823749073 0.0004049756441128704
0.1408446878 -0.09699654579 0.001757368416115963 0.00041421287675704187
0.1461661458 -0.09699654579 0.0016870187921491568 0.0004235146195644921
0.1514876038 -0.09699654579 0.0016159757106301153 0.00043304607536432765
0.1568090618 -0.09699654579 0.001546482213432812 0.00044258371211885333
0.1621305197 -0.09699654579 0.001480025391604657 0.0004521730164300392
0.1674519777 -0.09699654579 0.0014542750477754215 0.0003979180552375936
0.1727734357 -0.09699654579 0.0014432231170757022 0.0003199166610761917
0.1780948937 -0.09699654579 0.0014295489622673783 0.0002388523390804813
0.1834163517 -0.09699654579 0.001416707855107418 0.0001588703518119168
0.1887378097 -0.09699654579 0.001406753592838104 8.550011239087462e-05
0.1940592676 -0.09699654579 0.0013953748815438542 1.2099113726949037e-05
0.1993807256 -0.09699654579 0.001446020103865764 -2.227303809599802e-05
0.2047021836 -0.09699654579 0.001511842447621882 -4.5780078151793656e-05
0.2100236416 -0.09699654579 0.0015740888886486503 -7.042921300815552e-05
0.2153450996 -0.09699654579 0.0016343922508181281 -9.501246071278113e-05
0.2206665576 -0.09699654579 0.0016957411616152144 -0.00011951470540617101
0.2259880155 -0.09699654579 0.0017576469901805613 -0.00014405161517755112
0.2313094735 -0.09699654579 0.0017969069099842705 -0.0001400696956400973
0.2366309315 -0.09699654579 0.0018289510379010151 -0.0001301849790218576
0.2419523895 -0.09699654579 0.0018621316460325282 -0.00012027459002982752
0.2472738475 -0.09699654579 0.0018940992810567003 -0.0001103931610716966
0.2525953054 -0.09699654579 0.0019267572559914087 -0.00010095565255219878
0.2579167783 -0.09699654579 0.001956904227337265 -9.232869749632089e-05
0.2632382214 -0.09699654579 0.001984443406047976 -8.344723910766618e-05
0.2685596943 -0.09699654579 0.002013155434197813 -7.516878033874782e-05
0.2738811374 -0.09699654579 0.0020397482495614744 -6.605352648486517e-05
0.2792026103 -0.09699654579 0.0020652475393551353 -5.740963571999641e-05
0.2845240533 -0.09699654579 0.002090746308533872 -4.803961490937736e-05
0.2898455262 -0.09699654579 0.0021160689216231906 -3.9320548928736257e-05
0.2951669693 -0.09699654579 0.002132524275173516 7.1521955152692225e-06
0.3004884422 -0.09699654579 0.002147574732315686 5.4252890889450985e-05
0.3058098853 -0.09699654579 0.0021610116572996106 0.00010128739338865598
0.3111313581 -0.09699654579 0.002173814870353169 0.00014833119105285575
0.3164528012 -0.09699654579 0.002184988164579512 0.00019398343538531773
0.3217742741 -0.09699654579 0.0021901201384475115 0.000235028327841864
0.3270957172 -0.09699654579 0.0021391569899856166 0.0002748645870710584
0.3324171901 -0.09699654579 0.002087704245957999 0.00031470596506506733
0.3377386332 -0.09699654579 0.002037562484294085 0.00035249020240514723
0.343060106 -0.09699654579 0.0019883746634999882 0.0003886359820200855
0.3483815491 -0.09699654579 0.001939384129161439 0.00042522770011542085
0.353703022 -0.09699654579 0.0018840681685432605 0.00044083938429683583
0.3590244651 -0.09699654579 0.001816505939557641 0.00041722015482263816
0.364345938 -0.09699654579 0.0017526278432052345 0.0003954227502083608
0.369667381 -0.09699654579 0.0016881316846610588 0.00037390414170058404
0.3749888539 -0.09699654579 0.0016234731720775942 0.00035277225973588054
0.380310297 -0.09699654579 0.0015599008084713148 0.0003326025079587494
0.3856317699 -0.09699654579 0.0015268305235533778 0.0002977828706978709
0.390953213 -0.09699654579 0.001500670269729632 0.00025833487188187576
0.3962746859 -0.09699654579 0.0014748777998581152 0.00021770819233795779
0.4015961289 -0.09699654579 0.001448997034048917 0.00017902175229951673
0.4069176018 -0.09699654579 0.0014219209209285564 0.00014165506592146907
0.4122390449 -0.09699654579 0.0014028426696688456 0.00011094595225227352
0.4175605178 -0.09699654579 0.0013937763121287573 8.900212550508938e-05
0.4228819609 -0.09699654579 0.0013826869972435544 6.633882012947671e-05
0.4282034338 -0.09699654579 0.0013716094428511186 4.423726578868409e-05
0.4335248768 -0.09699654579 0.0013605503897936798 2.19813628011597e-05
0.4388463497 -0.09699654579 0.0013477385123151573 2.015027266260779e-06
0.4441677928 -0.09699654579 0.0013288108788224123 -1.2346802424936547e-05
0.4494892657 -0.09699654579 0.0013095050053338459 -2.6698129236117014e-05
0.4548107088 -0.09699654579 0.0012933744311285497 -4.109049100159557e-05
0.4601321816 -0.09699654579 0.0012757263758483913 -5.558750864092678e-05
0.4654536247 -0.09699654579 0.0012576048853826485 -6.778747083075667e-05
0.4707750976 -0.09699654579 0.001234756134245359 -7.604200062404858e-05
0.4760965407 -0.09699654579 0.0012135242629617315 -8.361650133811991e-05
0.4814180136 -0.09699654579 0.0011910883817903568 -9.182672124972834e-05
0.4867394567 -0.09699654579 0.0011685133174386124 -0.00010120454415498191
0.4920609295 -0.09699654579 0.0011348253155216825 -0.00010272250996295863
0.4973823726 -0.09699654579 0.0010966347473949757 -0.00010214830305207276
0.5027038455 -0.09699654579 0.0010601690169833033 -0.00010353809879255158
0.5080252886 -0.09699654579 0.0010223184914132076 -0.00010447647961145189
0.5133467317 -0.09699654579 0.0009701416069449505 -0.00010906251036817515
0.5186682343 -0.09699654579 0.0009034004690899828 -0.0001188830223241857
0.5239896774 -0.09699654579 0.000839473436774514 -0.0001324990382183271
0.5293111205 -0.09699654579 0.0007739807898647084 -0.0001440477027997881
0.5346325636 -0.09699654579 0.0006989522440346892 -0.00016648729219118362
0.5399540663 -0.09699654579 0.0006169462778627793 -0.00020542152899534342
0.5452755094 -0.09699654579 0.0005388887378200642 -0.00024460763835624247
0.5505969524 -0.09699654579 0.0004573217795474382 -0.0002833806981431336
0.5559183955 -0.09699654579 0.0003748406977880541 -0.0003438706500380655
0.5612398982 -0.09699654579 0.00030260467032809375 -0.00041024215492196453
0.5665613413 -0.09699654579 0.00022807758726439462 -0.0004766905748674933
0.5718827844 -0.09699654579 0.0001543685873967948 -0.0005529074690712472
0.5772042274 -0.09699654579 9.409299078002049e-05 -0.0006381472720129993
0.5825257301 -0.09699654579 3.1493198146493664e-05 -0.0007235220489218643
0.5878471732 -0.09699654579 -2.497842762741343e-05 -0.000814508528693735
0.5931686163 -0.09699654579 -7.184492822993253e-05 -0.0009078545751044488
0.5984900594 -0.09699654579 -0.00012001845677511158 -0.0010032774095156468
0.6038115621 -0.09699654579 -0.00015994819616708484 -0.0010975161123040783
0.6091330051 -0.09699654579 -0.00019516411989585556 -0.0011928710413461384
0.6144544482 -0.09699654579 -0.0002295309932635361 -0.001285795107727231
0.6197758913 -0.09699654579 -0.000261008620977365 -0.001375538342374382
0.625097394 -0.09699654579 -0.0002924378020313887 -0.0014640072827538115
0.6304188371 -0.09699654579 -0.0003200873321393526 -0.001546576720962046
0.6357402802 -0.09699654579 -0.00034964588762149707 -0.0016259267236948722
0.6410617828 -0.09699654579 -0.0003809854642328377 -0.0017027450813713746
0.6463832259 -0.09699654579 -0.00041834438076867166 -0.0017755305522118405
0.651704669 -0.09699654579 -0.00046133435572045926 -0.0018461381671695005
0.6570261121 -0.09699654579 -0.0005121722288274297 -0.0019172389616343916
0.6623476148 -0.09699654579 -0.0005691312822349073 -0.0019882424597543417
0.6676690578 -0.09699654579 -0.0006308890739304791 -0.002057014070743674
0.6729905009 -0.09699654579 -0.0007073342829397094 -0.0021292111388170314
0.678311944 -0.09699654579 -0.0007894496892071291 -0.0022033885052262802
0.6836334467 -0.09699654579 -0.0008781666285414181 -0.0022827154333568303
0.6889548898 -0.09699654579 -0.0009810627276015244 -0.0023706688620058
0.6942763329 -0.09699654579 -0.0010958937279252133 -0.002466393472645934
0.6995977759 -0.09699654579 -0.0012210419188501145 -0.0025686430694581556
0.7049192786 -0.09699654579 -0.0013531839498616772 -0.002682871484346765
0.7102407217 -0.09699654579 -0.0014988606950099796 -0.0028111588359719885
0.7155621648 -0.09699654579 -0.0016590000457403712 -0.0029581014510159675
0.7208836079 -0.09699654579 -0.00182903213690334 -0.003119553340791244
0.7262051105 -0.09699654579 -0.002010621232147019 -0.003302256085461777
0.7315265536 -0.09699654579 -0.002193640704244153 -0.0035066386183607344
0.7368479967 -0.09699654579 -0.0023894535688914306 -0.0037366862371023403
0.7421694398 -0.09699654579 -0.0025902470427369923 -0.004002224696206566
0.7474909425 -0.09699654579 -0.0027959773352706787 -0.004294016295164617
0.7528123856 -0.09699654579 -0.002995625077758213 -0.0046243297981939805
0.7581338286 -0.09699654579 -0.003192628697929179 -0.004994431915111382
-0.3008363545 -0.09367749095 -0.0007884275556175175 0.0014745109332315012
-0.2955148816 -0.09367749095 -0.0007552407189389216 0.0014716156097475707
-0.2901934385 -0.09367749095 -0.0007076117055390197 0.0014787776616686712
-0.2848719656 -0.09367749095 -0.0006740368464955697 0.001430785417887573
-0.2795505226 -0.09367749095 -0.0006628995962685284 0.0013498020287903254
-0.2742290497 -0.09367749095 -0.0006646115528536132 0.001243248043134062
-0.2689076066 -0.09367749095 -0.0006737316118224295 0.0011188930740730749
-0.2635861337 -0.09367749095 -0.0007202446425617295 0.0009513763774370312
-0.2582646906 -0.09367749095 -0.0007460385877490516 0.0008988188853186746
-0.2529432178 -0.09367749095 -0.0007698434591546997 0.0008837817759476186
-0.2476217598 -0.09367749095 -0.0007944449350862096 0.0008964280061441809
-0.2423003018 -0.09367749095 -0.0008377285410751747 0.0009479836602307998