VARIABLES = X,Y,phix,phiy
ZONE I=200,J=200,F=POINT 
-0.3008363545 -0.1003156006 0.0005782556723865729 -0.00011145760337298206
-0.2955148816 -0.1003156006 0.0005740348027068605 -0.00010261146722644977
-0.2901934385 -0.1003156006 0.0005697425335362969 -9.540874801074436e-05
-0.2848719656 -0.1003156006 0.0005649193068320492 -8.78152229815194e-05
-0.2795505226 -0.1003156006 0.0005593196120827077 -8.062724088782542e-05
-0.2742290497 -0.1003156006 0.000552891365579448 -7.447609428170203e-05
-0.2689076066 -0.1003156006 0.0005459353784762771 -6.799511331586766e-05
-0.2635861337 -0.1003156006 0.0005398283089821961 -6.356350731823645e-05
-0.2582646906 -0.1003156006 0.0005325164118119272 -6.072035715229772e-05
-0.2529432178 -0.1003156006 0.0005248081802620658 -5.880439075143952e-05
-0.2476217598 -0.1003156006 0.0005167256832921921 -5.705204841316345e-05
-0.2423003018 -0.1003156006 0.0005096408681651154 -5.6707286675465706e-05
-0.2369788438 -0.1003156006 0.0005021639979736769 -5.746031234913942e-05
-0.2316573858 -0.1003156006 0.0004940797077078751 -5.897119495458701e-05
-0.2263359278 -0.1003156006 0.0004870515987557731 -6.0851317960355464e-05
-0.2210144699 -0.1003156006 0.00048328038119520387 -6.214846423521735e-05
-0.2156930119 -0.1003156006 0.0004794211625992073 -6.386181378023141e-05
-0.2103715539 -0.1003156006 0.00047599015818379985 -6.615400950999344e-05
-0.2050500959 -0.1003156006 0.00047433278432416665 -6.678330106968432e-05
-0.1997286379 -0.1003156006 0.0004725627946151939 -6.809746975096538e-05
-0.19440718 -0.1003156006 0.00047128962655811925 -6.956112235679152e-05
-0.189085722 -0.1003156006 0.00046927454705829894 -6.981694454844096e-05
-0.183764264 -0.1003156006 0.00046703486302324934 -7.023917447948583e-05
-0.178442806 -0.1003156006 0.0004647321221493951 -7.04600734647613e-05
-0.173121348 -0.1003156006 0.0004634748533347206 -6.989731165778359e-05
-0.16779989 -0.1003156006 0.00046217758004416394 -6.947178573294076e-05
-0.1624784321 -0.1003156006 0.00046112227570266497 -6.899315070983381e-05
-0.1571569741 -0.1003156006 0.00046008528562944376 -6.822800650841642e-05
-0.1518355161 -0.1003156006 0.00045894144805705086 -6.770684835352058e-05
-0.1465140581 -0.1003156006 0.0004579345557857526 -6.724215317749463e-05
-0.1411926001 -0.1003156006 0.00045655204375149216 -6.628935650087177e-05
-0.1358711421 -0.1003156006 0.0004549647810204007 -6.509253088599721e-05
-0.1305496842 -0.1003156006 0.0004533787523484497 -6.389575435353939e-05
-0.1252282262 -0.1003156006 0.0004517793092973463 -6.260731337717812e-05
-0.1199067682 -0.1003156006 0.00044997683299055624 -6.110017120884211e-05
-0.1145853102 -0.1003156006 0.00044807006307252925 -5.974239512739689e-05
-0.1092638522 -0.1003156006 0.0004461328355495387 -5.835936476571489e-05
-0.1039423943 -0.1003156006 0.00044423740889532124 -5.685466686530654e-05
-0.09862093627 -0.1003156006 0.00044211761705967913 -5.5594560809694246e-05
-0.09329947084 -0.1003156006 0.0004400142544709892 -5.4292878577581294e-05
-0.08797801286 -0.1003156006 0.000437911312967029 -5.299117176357475e-05
-0.08265655488 -0.1003156006 0.0004357081314134761 -5.158633990106261e-05
-0.0773350969 -0.1003156006 0.00043328870473235157 -5.040434037225295e-05
-0.07201363891 -0.1003156006 0.00043091331826956657 -4.9203766735329805e-05
-0.06669218093 -0.1003156006 0.0004285380081711088 -4.800316918979352e-05
-0.06137072667 -0.1003156006 0.00042611844543620524 -4.6785198184832294e-05
-0.05604926869 -0.1003156006 0.0004235027520438597 -4.57077178430227e-05
-0.05072781071 -0.1003156006 0.0004208758216906079 -4.4773565757012825e-05
-0.045406349 -0.1003156006 0.00041827754502517906 -4.3833978961371045e-05
-0.04008489102 -0.1003156006 0.00041566083924951395 -4.287837720706144e-05
-0.03476343304 -0.1003156006 0.0004129770007554116 -4.197065800851961e-05
-0.02944197692 -0.1003156006 0.00041028584134732556 -4.135959322659461e-05
-0.02412051894 -0.1003156006 0.0004075875748044587 -4.07480316422495e-05
-0.01879905909 -0.1003156006 0.00040487594234624413 -4.0139094303176375e-05
-0.01347760204 -0.1003156006 0.0004021826990406562 -3.9524498519051516e-05
-0.00815614406 -0.1003156006 0.000399408936886432 -3.896112382384643e-05
-0.00283468538 -0.1003156006 0.0003966464622044691 -3.8518478895109386e-05
0.002486772602 -0.1003156006 0.00039387334367626387 -3.806230408262643e-05
0.007808230817 -0.1003156006 0.00039109670321271203 -3.760851905241181e-05
0.0131296888 -0.1003156006 0.0003883328788121201 -3.7163240723544664e-05
0.01845114678 -0.1003156006 0.00038544885246228033 -3.67799170298663e-05
0.02377260476 -0.1003156006 0.0003825426266793744 -3.6497183430968744e-05
0.02909406275 -0.1003156006 0.0003796166643727442 -3.621266655574011e-05
0.03441552073 -0.1003156006 0.0003766929248685642 -3.592810112104127e-05
0.03973697871 -0.1003156006 0.0003737829395783008 -3.564578413360054e-05
0.04505843669 -0.1003156006 0.0003707998590854438 -3.544372679063052e-05
0.05037989467 -0.1003156006 0.0003677626560514682 -3.546435247173854e-05
0.05570135266 -0.1003156006 0.00036472251981677095 -3.5468257408154965e-05
0.06102281436 -0.1003156006 0.0003616712989938625 -3.54799670830781e-05
0.06634426862 -0.1003156006 0.00035863784633432795 -3.548994037739778e-05
0.0716657266 -0.1003156006 0.0003556062533515246 -3.551032523978663e-05
0.07698718458 -0.1003156006 0.00035246000460460936 -3.581648354589223e-05
0.08230864257 -0.1003156006 0.0003493374763582146 -3.61685897336428e-05
0.08763010055 -0.1003156006 0.00034621219311636956 -3.650409367703e-05
0.09295155853 -0.1003156006 0.0003430980459338664 -3.684507518767344e-05
0.09827301651 -0.1003156006 0.0003399809559968549 -3.719760710816646e-05
0.1035944745 -0.1003156006 0.0003368126997648691 -3.76157056621495e-05
0.1089159325 -0.1003156006 0.0003336153887726494 -3.8229255229741465e-05
0.1142373979 -0.1003156006 0.00033041768063129504 -3.884288097023812e-05
0.1195588559 -0.1003156006 0.00032724839224077874 -3.94493380080415e-05
0.1248803139 -0.1003156006 0.0003240728845404574 -4.005017334780059e-05
0.1302017719 -0.1003156006 0.0003208844642937573 -4.0664260865845536e-05
0.1355232298 -0.1003156006 0.0003176305378604551 -4.1370113217502456e-05
0.1408446878 -0.1003156006 0.00031437789767059315 -4.2162876005103275e-05
0.1461661458 -0.1003156006 0.00031112483515392255 -4.297455312117564e-05
0.1514876038 -0.1003156006 0.0003078702160711608 -4.378613157441953e-05
0.1568090618 -0.1003156006 0.0003046171316272058 -4.459778848271842e-05
0.1621305197 -0.1003156006 0.0003013632176004217 -4.540574965120235e-05
0.1674519777 -0.1003156006 0.0002979760847625714 -4.6319409709218715e-05
0.1727734357 -0.1003156006 0.00029453063111433114 -4.732849471444569e-05
0.1780948937 -0.1003156006 0.0002910866265580973 -4.83377223925987e-05
0.1834163517 -0.1003156006 0.00028764173467341595 -4.93467897192263e-05
0.1887378097 -0.1003156006 0.0002842112770455628 -5.035052163134566e-05
0.1940592676 -0.1003156006 0.0002807832121868843 -5.138089813228757e-05
0.1993807256 -0.1003156006 0.0002771394231850695 -5.258809155894492e-05
0.2047021836 -0.1003156006 0.00027344831325733324 -5.386666016929255e-05
0.2100236416 -0.1003156006 0.0002697622224101375 -5.514361285872553e-05
0.2153450996 -0.1003156006 0.00026609968912375573 -5.6421408987906456e-05
0.2206665576 -0.1003156006 0.0002624210958790303 -5.771506049928778e-05
0.2259880155 -0.1003156006 0.0002587412845565982 -5.900802283524412e-05
0.2313094735 -0.1003156006 0.00025480569828973754 -6.0476669158524844e-05
0.2366309315 -0.1003156006 0.0002508294702278176 -6.202681901035875e-05
0.2419523895 -0.1003156006 0.00024685203612014083 -6.359588039404004e-05
0.2472738475 -0.1003156006 0.00024287544552315546 -6.516138690453437e-05
0.2525953054 -0.1003156006 0.00023889787798394468 -6.673024561487957e-05
0.2579167783 -0.1003156006 0.0002349396747419431 -6.830784296399977e-05
0.2632382214 -0.1003156006 0.0002306218030118161 -7.011514570190782e-05
0.2685596943 -0.1003156006 0.00022622232893017923 -7.19756474261648e-05
0.2738811374 -0.1003156006 0.00022180539147736818 -7.382177102809967e-05
0.2792026103 -0.1003156006 0.00021740538547866542 -7.56775257673389e-05
0.2845240533 -0.1003156006 0.00021301887613101855 -7.75853687484256e-05
0.2898455262 -0.1003156006 0.00020862884819713775 -7.949315757232722e-05
0.2951669693 -0.1003156006 0.000203685318361998 -8.170860176886538e-05
0.3004884422 -0.1003156006 0.0001986731461253395 -8.39892305774056e-05
0.3058098853 -0.1003156006 0.00019369720063908765 -8.634279293070732e-05
0.3111313581 -0.1003156006 0.0001887185375483333 -8.869640256345277e-05
0.3164528012 -0.1003156006 0.000183740165743163 -9.104989915633022e-05
0.3217742741 -0.1003156006 0.00017876763509343377 -9.339264027287555e-05
0.3270957172 -0.1003156006 0.0001731184414231419 -9.63340438290017e-05
0.3324171901 -0.1003156006 0.0001674572657741483 -9.927541571362515e-05
0.3377386332 -0.1003156006 0.00016179786350423834 -0.00010221677853589788
0.343060106 -0.1003156006 0.0001561394028764923 -0.00010515828824149226
0.3483815491 -0.1003156006 0.00015056345184638652 -0.00010818164026954963
0.353703022 -0.1003156006 0.00014474938587229685 -0.00011139770799008703
0.3590244651 -0.1003156006 0.00013840088129695536 -0.00011507178810647435
0.364345938 -0.1003156006 0.00013205340276824565 -0.00011874712266741051
0.369667381 -0.1003156006 0.00012579719351537945 -0.00012251745714317978
0.3749888539 -0.1003156006 0.00011952431771883104 -0.0001262663307802019
0.380310297 -0.1003156006 0.0001132263137978998 -0.00013000093887715678
0.3856317699 -0.1003156006 0.0001062012310669188 -0.00013425513396696681
0.390953213 -0.1003156006 9.904667514457873e-05 -0.0001388300636030265
0.3962746859 -0.1003156006 9.188886273606955e-05 -0.00014341289805057384
0.4015961289 -0.1003156006 8.474508856724351e-05 -0.0001479814998122745
0.4069176018 -0.1003156006 7.762399412212323e-05 -0.00015255524136674597
0.4122390449 -0.1003156006 7.016634392339906e-05 -0.00015764346224782325
0.4175605178 -0.1003156006 6.198421207726803e-05 -0.00016331464466850818
0.4228819609 -0.1003156006 5.372308320303696e-05 -0.00016891578573027054
0.4282034338 -0.1003156006 4.5486942466251056e-05 -0.00017453632017502547
0.4335248768 -0.1003156006 3.7399336850600004e-05 -0.00018031627746149212
0.4388463497 -0.1003156006 2.8963070620281965e-05 -0.00018642211713503244
0.4441677928 -0.1003156006 1.9535322159302234e-05 -0.00019346983695723682
0.4494892657 -0.1003156006 1.0171871743947019e-05 -0.00020056785933466204
0.4548107088 -0.1003156006 9.627209607195944e-07 -0.00020781225275074414
0.4601321816 -0.1003156006 -8.36565289762445e-06 -0.00021495353768738302
0.4654536247 -0.1003156006 -1.827112674206884e-05 -0.00022267797152683328
0.4707750976 -0.1003156006 -2.896830849814173e-05 -0.00023148371265320865
0.4760965407 -0.1003156006 -3.951331125261202e-05 -0.00024043566807670935
0.4814180136 -0.1003156006 -5.0055198014560004e-05 -0.00024938745631334085
0.4867394567 -0.1003156006 -6.059742036906496e-05 -0.0002583345494939799
0.4920609295 -0.1003156006 -7.230770330889678e-05 -0.0002688289550013502
0.4973823726 -0.1003156006 -8.431920783173491e-05 -0.0002798363954121392
0.5027038455 -0.1003156006 -9.632329760877624e-05 -0.00029084260242266186
0.5080252886 -0.1003156006 -0.00010832072142249545 -0.00030185182011297016
0.5133467317 -0.1003156006 -0.00012055303973923506 -0.0003142273101257853
0.5186682343 -0.1003156006 -0.00013399581378133866 -0.00032781608293309803
0.5239896774 -0.1003156006 -0.00014753364191398116 -0.00034136918602719463
0.5293111205 -0.1003156006 -0.0001608525882517845 -0.0003550119491917344
0.5346325636 -0.1003156006 -0.00017441021629874593 -0.0003701093784402377
0.5399540663 -0.1003156006 -0.00018910474482675336 -0.00038674056822987857
0.5452755094 -0.1003156006 -0.00020412006401350673 -0.00040328230914064465
0.5505969524 -0.1003156006 -0.00021856208542486025 -0.00041999037750327064
0.5559183955 -0.1003156006 -0.0002337014996200903 -0.00043930837362647494
0.5612398982 -0.1003156006 -0.00025002333296972394 -0.00045931203822982173
0.5665613413 -0.1003156006 -0.00026617211000157416 -0.00047933536220448613
0.5718827844 -0.1003156006 -0.00028200339564407785 -0.0005010703419494085
0.5772042274 -0.1003156006 -0.0002993422030559238 -0.0005249715998241757
0.5825257301 -0.1003156006 -0.00031685391804785754 -0.0005488848665558433
0.5878471732 -0.1003156006 -0.00033393884095834835 -0.0005746522804532563
0.5931686163 -0.1003156006 -0.0003521879494972552 -0.0006028925452263766
0.5984900594 -0.1003156006 -0.0003705365756899643 -0.0006308762795091612
0.6038115621 -0.1003156006 -0.0003896732424944557 -0.0006623804396298311
0.6091330051 -0.1003156006 -0.00040854406358237395 -0.0006946906435744202
0.6144544482 -0.1003156006 -0.0004286234417258566 -0.0007295388963490163
0.6197758913 -0.1003156006 -0.00044810076113689564 -0.0007667323591603203
0.625097394 -0.1003156006 -0.00046775535153344367 -0.0008059049930430078
0.6304188371 -0.1003156006 -0.000487933970505202 -0.0008487864905524847
0.6357402802 -0.1003156006 -0.0005065746669480506 -0.0008933545828516743
0.6410617828 -0.1003156006 -0.000525832638045196 -0.0009413359154029619
0.6463832259 -0.1003156006 -0.0005447355750480159 -0.0009918163109642832
0.651704669 -0.1003156006 -0.0005636815168545028 -0.001044539611626841
0.6570261121 -0.1003156006 -0.0005803297124927232 -0.0011015740403369824
0.6623476148 -0.1003156006 -0.0005967138744461212 -0.001162079342952962
0.6676690578 -0.1003156006 -0.0006122779091488851 -0.0012255975357404597
0.6729905009 -0.1003156006 -0.0006252963667141589 -0.0012946205625835201
0.678311944 -0.1003156006 -0.0006359577093033684 -0.0013663514781846408
0.6836334467 -0.1003156006 -0.0006451875149253318 -0.0014419927197585312
0.6889548898 -0.1003156006 -0.0006519970005958737 -0.0015228644471273081
0.6942763329 -0.1003156006 -0.0006548040753110787 -0.0016079504869570937
0.6995977759 -0.1003156006 -0.0006546286299771354 -0.001696932987772415
0.7049192786 -0.1003156006 -0.0006506523671729396 -0.0017897335471154104
0.7102407217 -0.1003156006 -0.0006421967260495643 -0.0018875058835523403
0.7155621648 -0.1003156006 -0.0006275735194388796 -0.001989577813930751
0.7208836079 -0.1003156006 -0.0006070877227094134 -0.0020947735576767224
0.7262051105 -0.1003156006 -0.0005810652189029373 -0.002203480453094084
0.7315265536 -0.1003156006 -0.000547688003413911 -0.0023159657158209257
0.7368479967 -0.1003156006 -0.0005047759328781717 -0.002432264112511172
0.7421694398 -0.1003156006 -0.0004545615611649943 -0.0025514315659727286
0.7474909425 -0.1003156006 -0.0003974773307183623 -0.0026682915166663474
0.7528123856 -0.1003156006 -0.0003293965093818909 -0.00278899842177697
0.7581338286 -0.1003156006 -0.0002522094126149099 -0.0029102033659425763
-0.3008363545 -0.09699654579 0.0005839968423493251 -0.00010959488271354489
-0.2955148816 -0.09699654579 0.0005788474784610583 -0.0001002167039979763
-0.2901934385 -0.09699654579 0.0005737275149828012 -9.150150666867261e-05
-0.2848719656 -0.09699654579 0.0005686918307128082 -8.402983315448394e-05
-0.2795505226 -0.09699654579 0.0005627956830032864 -7.682402198271226e-05
-0.2742290497 -0.09699654579 0.0005563580553627605 -6.992040070713136e-05
-0.2689076066 -0.09699654579 0.0005488676381585055 -6.375525850236977e-05
-0.2635861337 -0.09699654579 0.0005421922617250664 -5.872285855988683e-05
-0.2582646906 -0.09699654579 0.0005345570046174791 -5.542408080111346e-05
-0.2529432178 -0.09699654579 0.0005266143631466812 -5.342594357699301e-05
-0.2476217598 -0.09699654579 0.0005180038531050918 -5.2405347700233355e-05
-0.2423003018 -0.09699654579 0.0005105422918251277 -5.230112856918716e-05
-0.2369788438 -0.09699654579 0.0005026243487663574 -5.3377670119626545e-05
-0.2316573858 -0.09699654579 0.0004944501448519728 -5.536656020582996e-05
-0.2263359278 -0.09699654579 0.00048604776019383364 -5.800910985463365e-05
-0.2210144699 -0.09699654579 0.0004821057869820913 -5.954247618663262e-05
-0.2156930119 -0.09699654579 0.0004786824439106652 -6.155838160481288e-05
-0.2103715539 -0.09699654579 0.00047511814753107976 -6.411651745831824e-05
-0.2050500959 -0.09699654579 0.0004734083792167922 -6.554422330553524e-05
-0.1997286379 -0.09699654579 0.0004721493953764791 -6.700813338727312e-05
-0.19440718 -0.09699654579 0.0004711577163816546 -6.847445850134206e-05
-0.189085722 -0.09699654579 0.00046960790397286605 -6.892105943500779e-05
-0.183764264 -0.09699654579 0.00046699844330040153 -6.905073443088052e-05
-0.178442806 -0.09699654579 0.0004647450990498381 -6.914827253353004e-05
-0.173121348 -0.09699654579 0.0004633520887832216 -6.858170990981469e-05
-0.16779989 -0.09699654579 0.00046252504440806407 -6.806178216538988e-05
-0.1624784321 -0.09699654579 0.00046161215172876716 -6.786712686978412e-05
-0.1571569741 -0.09699654579 0.00046085213073681605 -6.741658219020196e-05
-0.1518355161 -0.09699654579 0.0004597952255529014 -6.70634714408305e-05
-0.1465140581 -0.09699654579 0.000458605916256279 -6.65212534489438e-05
-0.1411926001 -0.09699654579 0.00045747223491236143 -6.562592500085469e-05
-0.1358711421 -0.09699654579 0.00045587055970464644 -6.431989444889485e-05
-0.1305496842 -0.09699654579 0.00045438592712432324 -6.295643772314145e-05
-0.1252282262 -0.09699654579 0.00045282123327525226 -6.15421143134816e-05
-0.1199067682 -0.09699654579 0.00045092132853668577 -5.997957156061604e-05
-0.1145853102 -0.09699654579 0.0004490502011172898 -5.856510117611872e-05
-0.1092638522 -0.09699654579 0.00044713392655347045 -5.715365698563646e-05
-0.1039423943 -0.09699654579 0.0004452522276085692 -5.55823005502675e-05
-0.09862093627 -0.09699654579 0.0004431425598573419 -5.426037480612346e-05
-0.09329947084 -0.09699654579 0.0004409941008322819 -5.2933876956356304e-05
-0.08797801286 -0.09699654579 0.0004388241580298834 -5.159485595994958e-05
-0.08265655488 -0.09699654579 0.00043665916804111325 -5.016244793961385e-05
-0.0773350969 -0.09699654579 0.000434223394206651 -4.8943068436161945e-05
-0.07201363891 -0.09699654579 0.0004317929639271829 -4.769235147449752e-05
-0.06669218093 -0.09699654579 0.0004293560927239443 -4.643151199684231e-05
-0.06137072667 -0.09699654579 0.00042689696742438996 -4.518526151988377e-05
-0.05604926869 -0.09699654579 0.0004242057622467022 -4.4099279046773257e-05
-0.05072781071 -0.09699654579 0.00042156261046113303 -4.313608223140297e-05
-0.045406349 -0.09699654579 0.00041891981243152057 -4.2172990997182965e-05
-0.04008489102 -0.09699654579 0.00041625345736553265 -4.120827646566436e-05
-0.03476343304 -0.09699654579 0.0004135192349020168 -4.028524505236207e-05
-0.02944197692 -0.09699654579 0.0004107915775650811 -3.966562471985221e-05
-0.02412051894 -0.09699654579 0.00040805979406218304 -3.9054642780907e-05
-0.01879905909 -0.09699654579 0.0004053330473729314 -3.8434355789460046e-05
-0.01347760204 -0.09699654579 0.0004026036577207567 -3.7811247834859685e-05
-0.00815614406 -0.09699654579 0.00039979740933689036 -3.723634724740351e-05
-0.00283468538 -0.09699654579 0.00039700951182798796 -3.6775100560292284e-05
0.002486772602 -0.09699654579 0.0003942196772087025 -3.6306415486695736e-05
0.007808230817 -0.09699654579 0.00039142420724625317 -3.5840333476637284e-05
0.0131296888 -0.09699654579 0.00038863652723488 -3.537516119633136e-05
0.01845114678 -0.09699654579 0.0003857231275880213 -3.497697529498925e-05
0.02377260476 -0.09699654579 0.00038278324596866583 -3.468512862299187e-05
0.02909406275 -0.09699654579 0.000379841279211934 -3.438097801937425e-05
0.03441552073 -0.09699654579 0.0003768953648865829 -3.407835888796695e-05
0.03973697871 -0.09699654579 0.0003739582209897462 -3.378454715939798e-05
0.04505843669 -0.09699654579 0.0003709436611842046 -3.357131650729891e-05
0.05037989467 -0.09699654579 0.0003678762128122564 -3.357619446283978e-05
0.05570135266 -0.09699654579 0.0003648173519215736 -3.356968921886117e-05
0.06102281436 -0.09699654579 0.00036174708714107836 -3.35610631856764e-05
0.06634426862 -0.09699654579 0.0003586837029884689 -3.35654602782454e-05
0.0716657266 -0.09699654579 0.0003556226301829924 -3.3569950285223344e-05
0.07698718458 -0.09699654579 0.00035244108887403204 -3.387384909933341e-05
0.08230864257 -0.09699654579 0.00034928618378230055 -3.421665208634448e-05
0.08763010055 -0.09699654579 0.00034613967242560595 -3.4544135547883607e-05
0.09295155853 -0.09699654579 0.0003430024338431414 -3.488065920008682e-05
0.09827301651 -0.09699654579 0.00033985217628370294 -3.522350207330454e-05
0.1035944745 -0.09699654579 0.0003366522508554373 -3.564077861262661e-05
0.1089159325 -0.09699654579 0.00033342532847218715 -3.625008197181871e-05
0.1142373979 -0.09699654579 0.0003302184663433609 -3.684917831297389e-05
0.1195588559 -0.09699654579 0.000327012427563481 -3.7459802934698054e-05
0.1248803139 -0.09699654579 0.000323806828237618 -3.807031091487717e-05
0.1302017719 -0.09699654579 0.00032060316631071924 -3.866451176016503e-05
0.1355232298 -0.09699654579 0.0003173373584508377 -3.9361372017030074e-05
0.1408446878 -0.09699654579 0.00031407125024480553 -4.01461297279093e-05
0.1461661458 -0.09699654579 0.00031080060184933363 -4.093741590800888e-05
0.1514876038 -0.09699654579 0.0003075275126141663 -4.1731404289761144e-05
0.1568090618 -0.09699654579 0.00030425751916359357 -4.2525018104553986e-05
0.1621305197 -0.09699654579 0.0003010032120990785 -4.331190313040948e-05
0.1674519777 -0.09699654579 0.0002975795306700216 -4.42375614072312e-05
0.1727734357 -0.09699654579 0.0002941242333798137 -4.5213989201351306e-05
0.1780948937 -0.09699654579 0.00029066463690517047 -4.618869015091103e-05
0.1834163517 -0.09699654579 0.000287209861688081 -4.715692479715233e-05
0.1887378097 -0.09699654579 0.0002837594696098096 -4.815664112621689e-05
0.1940592676 -0.09699654579 0.00028031024693270495 -4.915644170288741e-05
0.1993807256 -0.09699654579 0.0002766291667850527 -5.033912135985003e-05
0.2047021836 -0.09699654579 0.00027290732738098085 -5.158451519802639e-05
0.2100236416 -0.09699654579 0.0002692123171576899 -5.2838920928832763e-05
0.2153450996 -0.09699654579 0.0002655128027111717 -5.410767735028807e-05
0.2206665576 -0.09699654579 0.0002618137353724632 -5.537671154527083e-05
0.2259880155 -0.09699654579 0.00025811326443644797 -5.663324724009826e-05
0.2313094735 -0.09699654579 0.0002541696533515771 -5.80771836351997e-05
0.2366309315 -0.09699654579 0.0002501628797226976 -5.95952108948411e-05
0.2419523895 -0.09699654579 0.0002461560610213775 -6.111338110158576e-05
0.2472738475 -0.09699654579 0.00024215037089065337 -6.263134057668647e-05
0.2525953054 -0.09699654579 0.00023816619312785008 -6.416014583957372e-05
0.2579167783 -0.09699654579 0.00023417926290173111 -6.571454052658078e-05
0.2632382214 -0.09699654579 0.00022980268887925107 -6.745512612657114e-05
0.2685596943 -0.09699654579 0.00022535678164618256 -6.924600699816486e-05
0.2738811374 -0.09699654579 0.00022092932604930913 -7.105436564232923e-05
0.2792026103 -0.09699654579 0.0002165078325542189 -7.29027492015609e-05
0.2845240533 -0.09699654579 0.00021209175683538923 -7.473394315190573e-05
0.2898455262 -0.09699654579 0.00020766170687727095 -7.656244514768751e-05
0.2951669693 -0.09699654579 0.00020265154625082082 -7.871505451595316e-05
0.3004884422 -0.09699654579 0.00019760177261826987 -8.0959280419169e-05
0.3058098853 -0.09699654579 0.00019255087971733646 -8.320473783486636e-05
0.3111313581 -0.09699654579 0.00018750315101887768 -8.544998960435002e-05
0.3164528012 -0.09699654579 0.0001824826889502005 -8.771765282971035e-05
0.3217742741 -0.09699654579 0.00017744250159456264 -9.005940392300272e-05
0.3270957172 -0.09699654579 0.00017169901439324504 -9.292401331850153e-05
0.3324171901 -0.09699654579 0.0001659563377866677 -9.57882495426404e-05
0.3377386332 -0.09699654579 0.00016024648793147881 -9.867721729740177e-05
0.343060106 -0.09699654579 0.00015456643433868776 -0.00010160159168036472
0.3483815491 -0.09699654579 0.00014886646660502978 -0.00010451801686940147
0.353703022 -0.09699654579 0.00014289908507095008 -0.00010763381764325953
0.3590244651 -0.09699654579 0.00013646244300465676 -0.00011120871623103825
0.364345938 -0.09699654579 0.0001300584756833542 -0.00011484389197733426
0.369667381 -0.09699654579 0.0001236608025332288 -0.000118470574721091
0.3749888539 -0.09699654579 0.00011727251268913485 -0.00012209744037009623
0.380310297 -0.09699654579 0.00011094212946018203 -0.00012577712695231993
0.3856317699 -0.09699654579 0.00010387970445260767 -0.00013005462832238956
0.390953213 -0.09699654579 9.661353047868277e-05 -0.0001344763742862268
0.3962746859 -0.09699654579 8.929167003686744e-05 -0.00013884744787922554
0.4015961289 -0.09699654579 8.205320419312177e-05 -0.00014330987046336525
0.4069176018 -0.09699654579 7.484644184024028e-05 -0.00014782696289976572
0.4122390449 -0.09699654579 6.710762393317851e-05 -0.00015272875687801548
0.4175605178 -0.09699654579 5.8658340880650435e-05 -0.00015816816021894793
0.4228819609 -0.09699654579 5.0342821496128955e-05 -0.00016375257139110755
0.4282034338 -0.09699654579 4.2049587944117725e-05 -0.00016937340898677647
0.4335248768 -0.09699654579 3.375587796014707e-05 -0.00017498824065240227
0.4388463497 -0.09699654579 2.5003844022035806e-05 -0.0001808823071701657
0.4441677928 -0.09699654579 1.5418662905393187e-05 -0.00018782168119740216
0.4494892657 -0.09699654579 5.850631359519913e-06 -0.00019474878887988306
0.4548107088 -0.09699654579 -3.7055201377107344e-06 -0.00020167492556746143
0.4601321816 -0.09699654579 -1.3196820703303308e-05 -0.00020865332641696602
0.4654536247 -0.09699654579 -2.3137926289209403e-05 -0.0002164154347019211
0.4707750976 -0.09699654579 -3.398243000505217e-05 -0.00022509471057330032
0.4760965407 -0.09699654579 -4.5002845885399154e-05 -0.00023363230457748975
0.4814180136 -0.09699654579 -5.585429566897247e-05 -0.00024230628917105127
0.4867394567 -0.09699654579 -6.657978841697414e-05 -0.00025110078908858503
0.4920609295 -0.09699654579 -7.864576530964822e-05 -0.00026143053330211086
0.4973823726 -0.09699654579 -9.107792518471235e-05 -0.000272185540756383
0.5027038455 -0.09699654579 -0.00010321473818819223 -0.000283136486248629
0.5080252886 -0.09699654579 -0.00011551172569812526 -0.0002939874614342584
0.5133467317 -0.09699654579 -0.00012862027006488026 -0.00030593812163417876
0.5186682343 -0.09699654579 -0.00014253802549340483 -0.00031931345066294777
0.5239896774 -0.09699654579 -0.00015609695617492626 -0.000332907128510118
0.5293111205 -0.09699654579 -0.00016979527359073073 -0.00034641060290625255
0.5346325636 -0.09699654579 -0.00018448255616014653 -0.00036100393215125905
0.5399540663 -0.09699654579 -0.00019966076050574494 -0.00037749518806596687
0.5452755094 -0.09699654579 -0.00021468290860936543 -0.0003940642318488895
0.5505969524 -0.09699654579 -0.00022985884878091005 -0.0004105553006933957
0.5559183955 -0.09699654579 -0.000246385927252292 -0.0004293806759725449
0.5612398982 -0.09699654579 -0.00026276738296715486 -0.00044935326263334676
0.5665613413 -0.09699654579 -0.0002791468936913841 -0.00046932281723755675
0.5718827844 -0.09699654579 -0.00029674665099975163 -0.0004904641632330132
0.5772042274 -0.09699654579 -0.0003144218075082971 -0.0005142015222458596
0.5825257301 -0.09699654579 -0.0003320943623028646 -0.0005379391616379134
0.5878471732 -0.09699654579 -0.0003510524294892139 -0.0005630642299696292
0.5931686163 -0.09699654579 -0.00036995231817945305 -0.000590982423044739
0.5984900594 -0.09699654579 -0.0003894639151918276 -0.0006189312750350326
0.6038115621 -0.09699654579 -0.0004093529924593007 -0.0006500029471815779
0.6091330051 -0.09699654579 -0.000430034684088604 -0.0006827351784375286
0.6144544482 -0.09699654579 -0.00045029062784476457 -0.0007168371048105255
0.6197758913 -0.09699654579 -0.000471527025310648 -0.0007548036077047728
0.625097394 -0.09699654579 -0.0004923674265391969 -0.0007936051941187048
0.6304188371 -0.09699654579 -0.0005135217981069399 -0.0008365356895255069
0.6357402802 -0.09699654579 -0.0005357433292682179 -0.0008808651594360478
0.6410617828 -0.09699654579 -0.0005561980184563563 -0.0009280995694848009
0.6463832259 -0.09699654579 -0.0005773391232713008 -0.0009791143448981473
0.651704669 -0.09699654579 -0.0005980149027870026 -0.0010327011734159613
0.6570261121 -0.09699654579 -0.000616908773294768 -0.0010910985853976394
0.6623476148 -0.09699654579 -0.0006349336912270781 -0.0011520917324482135
0.6676690578 -0.09699654579 -0.0006525383283650405 -0.001217072740798823
0.6729905009 -0.09699654579 -0.0006681956984519975 -0.0012860756366642062
0.678311944 -0.09699654579 -0.0006829447334203025 -0.0013592536350873798
0.6836334467 -0.09699654579 -0.0006953896140790267 -0.0014359327829775105
0.6889548898 -0.09699654579 -0.0007042550258969459 -0.0015177729076296792
0.6942763329 -0.09699654579 -0.0007101702456134029 -0.0016047412468069672
0.6995977759 -0.09699654579 -0.0007135011851150015 -0.0016966394197822205
0.7049192786 -0.09699654579 -0.0007122246404227572 -0.001792209562607177
0.7102407217 -0.09699654579 -0.0007059118599778915 -0.0018926416906714825
0.7155621648 -0.09699654579 -0.0006931687008851394 -0.001998386190199504
0.7208836079 -0.09699654579 -0.0006755812155725314 -0.0021091285104052277
0.7262051105 -0.09699654579 -0.0006509988101277404 -0.0022234159836540487
0.7315265536 -0.09699654579 -0.0006195609290187645 -0.0023395260332048063
0.7368479967 -0.09699654579 -0.0005802631047401227 -0.0024607400596346044
0.7421694398 -0.09699654579 -0.0005310175182547446 -0.0025836661049575592
0.7474909425 -0.09699654579 -0.0004740184774410506 -0.0027092710626307466
0.7528123856 -0.09699654579 -0.00040620535201596003 -0.0028349340090709327
0.7581338286 -0.09699654579 -0.0003286776875259835 -0.002960850349483367
-0.3008363545 -0.09367749095 0.0005900564973123524 -0.00010784220514671352
-0.2955148816 -0.09367749095 0.0005848564902175351 -9.758287025622367e-05
-0.2901934385 -0.09367749095 0.0005775959662301685 -8.803670147962284e-05
-0.2848719656 -0.09367749095 0.0005723635369456357 -7.990908667032907e-05
-0.2795505226 -0.09367749095 0.0005664196679965403 -7.247801380395091e-05
-0.2742290497 -0.09367749095 0.0005594431934566983 -6.56729279326037e-05