VARIABLES = X,Y,phix,phiy
ZONE I=200,J=200,F=POINT 
-0.3008363545 -0.1003156006 0.00020428952709001638 0.00010997655973779922
-0.2955148816 -0.1003156006 0.0002022995960875677 5.8749271562102174e-05
-0.2901934385 -0.1003156006 0.0001791022218987423 1.637882711119775e-05
-0.2848719656 -0.1003156006 0.00014780385343902313 -3.449910685850791e-05
-0.2795505226 -0.1003156006 0.0001875522151888876 -7.47309533768393e-05
-0.2742290497 -0.1003156006 0.00027407615799819834 -0.00010104269903869347
-0.2689076066 -0.1003156006 0.0003265338191960773 -0.0001673601139323141
-0.2635861337 -0.1003156006 0.0003460101725459568 -0.00020084835845121887
-0.2582646906 -0.1003156006 0.00038342672990879614 -0.0002026601347155411
-0.2529432178 -0.1003156006 0.0004402480128825518 -0.0001997877711566482
-0.2476217598 -0.1003156006 0.0005365240223004143 -0.00020044989485533025
-0.2423003018 -0.1003156006 0.0005930882714485291 -0.0002437857923690173
-0.2369788438 -0.1003156006 0.0006255695080801841 -0.0002935074374369846
-0.2316573858 -0.1003156006 0.000663389405190618 -0.0003431300786586294
-0.2263359278 -0.1003156006 0.0007127930274740699 -0.00040984764596114663
-0.2210144699 -0.1003156006 0.0007220408654232143 -0.00041240833684501554
-0.2156930119 -0.1003156006 0.0007427307329812596 -0.0004026439883460361
-0.2103715539 -0.1003156006 0.0007829062090268539 -0.00038370720127743775
-0.2050500959 -0.1003156006 0.0008746630449073355 -0.00033827266349413054
-0.1997286379 -0.1003156006 0.0009811876113197662 -0.00027716634374266825
-0.19440718 -0.1003156006 0.0010951190849245276 -0.00020107372046188426
-0.189085722 -0.1003156006 0.0010930725246703621 -0.00014810482629916503
-0.183764264 -0.1003156006 0.0010569010843636038 -8.097444245374189e-05
-0.178442806 -0.1003156006 0.0010207991006523373 -2.5508522430793888e-05
-0.173121348 -0.1003156006 0.0009922754830587407 1.40512309444791e-05
-0.16779989 -0.1003156006 0.0009789765916737394 5.483947455802641e-05
-0.1624784321 -0.1003156006 0.0009570410098092449 0.00011067347648249959
-0.1571569741 -0.1003156006 0.0009299649628128024 0.00013804832860815866
-0.1518355161 -0.1003156006 0.0008926561130078744 0.00015801773486363694
-0.1465140581 -0.1003156006 0.0008500475577968481 0.00017971377964354543
-0.1411926001 -0.1003156006 0.000818841598470177 0.00019011441444488676
-0.1358711421 -0.1003156006 0.0008020432078400679 0.0001831667520102073
-0.1305496842 -0.1003156006 0.0007835837827170244 0.00017631944875910199
-0.1252282262 -0.1003156006 0.0007732835015538692 0.00016865615286968267
-0.1199067682 -0.1003156006 0.0007609643052516153 0.00016676315999735315
-0.1145853102 -0.1003156006 0.0007469044793496662 0.00016938017880355823
-0.1092638522 -0.1003156006 0.0007339062961672298 0.00017479151831122157
-0.1039423943 -0.1003156006 0.0007204279458530802 0.00017774429241569392
-0.09862093627 -0.1003156006 0.0006972339849256257 0.00018353541104427373
-0.09329947084 -0.1003156006 0.0006711866971628787 0.00018692691506977488
-0.08797801286 -0.1003156006 0.0006462752839405052 0.00019030435876566786
-0.08265655488 -0.1003156006 0.0006217871327191391 0.0001919620322015302
-0.0773350969 -0.1003156006 0.0006133926971795166 0.0001831282536562412
-0.07201363891 -0.1003156006 0.000601227651899961 0.00017400194260032097
-0.06669218093 -0.1003156006 0.0005910476753003595 0.00016492121346216418
-0.06137072667 -0.1003156006 0.0005821452941389713 0.0001543178367386839
-0.05604926869 -0.1003156006 0.000583094932983048 0.00014381389986670327
-0.05072781071 -0.1003156006 0.0005882181873645658 0.0001343568428761378
-0.045406349 -0.1003156006 0.0005925398330314674 0.00012466232365454218
-0.04008489102 -0.1003156006 0.0005964520661377637 0.00011501326718374954
-0.03476343304 -0.1003156006 0.0005976755439681219 0.00011081183793827242
-0.02944197692 -0.1003156006 0.0005943455931265326 0.00011985389197166412
-0.02412051894 -0.1003156006 0.0005894885245527861 0.00012901801892880506
-0.01879905909 -0.1003156006 0.0005848674144362372 0.00013843442705737706
-0.01347760204 -0.1003156006 0.0005814422466049531 0.00014749504581945558
-0.00815614406 -0.1003156006 0.0005812048924969205 0.00015105838079895718
-0.00283468538 -0.1003156006 0.0005839066163390217 0.00015091711536445083
0.002486772602 -0.1003156006 0.0005886564279948875 0.00014933934173745107
0.007808230817 -0.1003156006 0.000592072510882472 0.00014774442278626615
0.0131296888 -0.1003156006 0.0005949212117174054 0.00014734984384376718
0.01845114678 -0.1003156006 0.0006058449023053174 0.0001540844061145644
0.02377260476 -0.1003156006 0.0006186174229302504 0.00016667795956334385
0.02909406275 -0.1003156006 0.0006337354648296354 0.00017964000240283575
0.03441552073 -0.1003156006 0.0006491347805386493 0.00019260324387589586
0.03973697871 -0.1003156006 0.0006628387617443798 0.0002052649026131362
0.04505843669 -0.1003156006 0.0006694574827147735 0.0002191106216872057
0.05037989467 -0.1003156006 0.0006611336721598142 0.00023680255824160142
0.05570135266 -0.1003156006 0.0006528602702825806 0.0002559828811703928
0.06102281436 -0.1003156006 0.0006453636855280025 0.00027554687066748873
0.06634426862 -0.1003156006 0.0006360697966263958 0.0002937107754857713
0.0716657266 -0.1003156006 0.0006279904623219416 0.00031104560100675904
0.07698718458 -0.1003156006 0.0006054035779601454 0.00031650187628366457
0.08230864257 -0.1003156006 0.0005804831995408155 0.0003210812162671437
0.08763010055 -0.1003156006 0.0005567453072306465 0.00032622216309011155
0.09295155853 -0.1003156006 0.000533117311082172 0.00033072476904596364
0.09827301651 -0.1003156006 0.0005090068777240927 0.0003349269768552908
0.1035944745 -0.1003156006 0.00048115824132343474 0.00032921240841902007
0.1089159325 -0.1003156006 0.0004415750783308729 0.0003026928657472319
0.1142373979 -0.1003156006 0.00040366283015879083 0.0002761872879453674
0.1195588559 -0.1003156006 0.0003688522452617053 0.0002501725501834615
0.1248803139 -0.1003156006 0.0003324815409623213 0.00022402010500537314
0.1302017719 -0.1003156006 0.00029556436496202626 0.0001977268845783438
0.1355232298 -0.1003156006 0.000275740059139878 0.0001479252964606265
0.1408446878 -0.1003156006 0.0002679307165958093 7.926626626894228e-05
0.1461661458 -0.1003156006 0.0002647066250435109 5.895467934586785e-06
0.1514876038 -0.1003156006 0.0002600270976556648 -6.746450743723923e-05
0.1568090618 -0.1003156006 0.00025682606747742316 -0.00014077422234664384
0.1621305197 -0.1003156006 0.0002522696531489929 -0.00021369117801525747
0.1674519777 -0.1003156006 0.0003115120732463108 -0.0002665943803915887
0.1727734357 -0.1003156006 0.0003970027743235883 -0.00031369348073389007
0.1780948937 -0.1003156006 0.00048564397315880084 -0.000360934857206906
0.1834163517 -0.1003156006 0.0005709860126097049 -0.0004081474229832819
0.1887378097 -0.1003156006 0.0006573953233787399 -0.00045354359305342147
0.1940592676 -0.1003156006 0.0007354222807276254 -0.0004946178386600492
0.1993807256 -0.1003156006 0.0008586493827287503 -0.0004289432119405167
0.2047021836 -0.1003156006 0.0009964485127412698 -0.0003288643318633627
0.2100236416 -0.1003156006 0.0011315972232957727 -0.0002289084047911474
0.2153450996 -0.1003156006 0.0012570399338721252 -0.0001392078873415521
0.2206665576 -0.1003156006 0.0013870258328262197 -4.567067268330312e-05
0.2259880155 -0.1003156006 0.0015157908811530743 4.783974301562302e-05
0.2313094735 -0.1003156006 0.0015213450586588145 0.0002572863228249128
0.2366309315 -0.1003156006 0.001486730743663783 0.00048264136152874354
0.2419523895 -0.1003156006 0.0014524669289399947 0.0007004035922660952
0.2472738475 -0.1003156006 0.0014169041673782784 0.0009188518155461757
0.2525953054 -0.1003156006 0.0013838205293239159 0.0011411505638539738
0.2579167783 -0.1003156006 0.0013468800355051895 0.0013479412075634721
0.2632382214 -0.1003156006 0.0011394752834208493 0.001412331846837948
0.2685596943 -0.1003156006 0.0008840350315810446 0.0014448184805808432
0.2738811374 -0.1003156006 0.0006199833928490397 0.0014796155798400415
0.2792026103 -0.1003156006 0.00036357293028599423 0.001512449830904318
0.2845240533 -0.1003156006 0.00012944282093990182 0.0015402297894548606
0.2898455262 -0.1003156006 -0.00010702629068158511 0.0015679448326148381
0.2951669693 -0.1003156006 -0.00021989348022617686 0.0013703132111298718
0.3004884422 -0.1003156006 -0.0003132276710751614 0.001140043617833042
0.3058098853 -0.1003156006 -0.00039463453928787265 0.0009400837250688803
0.3111313581 -0.1003156006 -0.00047664372668170516 0.0007402766927326715
0.3164528012 -0.1003156006 -0.0005583590315386696 0.0005403333310387955
0.3217742741 -0.1003156006 -0.0006344382055442918 0.00034285800890173837
0.3270957172 -0.1003156006 -0.0004419038285906768 0.0002662763240575591
0.3324171901 -0.1003156006 -0.00025059999851962213 0.0001892983046600067
0.3377386332 -0.1003156006 -5.746385022183244e-05 0.00011244234847814397
0.343060106 -0.1003156006 0.00013450227532853587 3.563347895634319e-05
0.3483815491 -0.1003156006 0.00029659881275008107 -3.100355493753109e-05
0.353703022 -0.1003156006 0.0004367761645969046 -1.8600582782268165e-05
0.3590244651 -0.1003156006 0.0005318929371618665 0.0001722568552299727
0.364345938 -0.1003156006 0.0006285996877802094 0.00036311876664666277
0.369667381 -0.1003156006 0.0007055061159899229 0.0005280972972037753
0.3749888539 -0.1003156006 0.0007872370295401415 0.0006998300031573534
0.380310297 -0.1003156006 0.0008712119930954252 0.0008739209545611997
0.3856317699 -0.1003156006 0.0007361226975446632 0.001025754595228312
0.390953213 -0.1003156006 0.0005511424696370338 0.0011492219261359923
0.3962746859 -0.1003156006 0.00036873616215122896 0.0012698606929380267
0.4015961289 -0.1003156006 0.00019046552197021953 0.001391843544663584
0.4069176018 -0.1003156006 1.3466925330817579e-05 0.0015151064892636606
0.4122390449 -0.1003156006 -0.00016123188941084054 0.0015359128119131408
0.4175605178 -0.1003156006 -0.00037290059965713396 0.0014268162883232186
0.4228819609 -0.1003156006 -0.000591607318487643 0.001314041573320462
0.4282034338 -0.1003156006 -0.0008112104926396999 0.0012010767196255477
0.4335248768 -0.1003156006 -0.0010003999233446515 0.0011021935661992487
0.4388463497 -0.1003156006 -0.0011408369787409233 0.0009736906040084046
0.4441677928 -0.1003156006 -0.0011490162007665727 0.0007651521791749437
0.4494892657 -0.1003156006 -0.0011549690410339157 0.0005609654457185727
0.4548107088 -0.1003156006 -0.0011616614016764142 0.00037678123327598346
0.4601321816 -0.1003156006 -0.001167817074198975 0.0001813233937365909
0.4654536247 -0.1003156006 -0.0011074109048082792 2.0175065709164803e-05
0.4707750976 -0.1003156006 -0.0009452068634555252 -8.149048505192497e-05
0.4760965407 -0.1003156006 -0.0007994231820448786 -0.00017383409244158305
0.4814180136 -0.1003156006 -0.0006562103659876299 -0.0002662751521453634
0.4867394567 -0.1003156006 -0.000509030973935102 -0.0003592707969554023
0.4920609295 -0.1003156006 -0.0003476311371532398 -0.0003337849061974259
0.4973823726 -0.1003156006 -0.00019239230805892768 -0.000277031768510525
0.5027038455 -0.1003156006 -3.393693458477052e-05 -0.00022060331403325886
0.5080252886 -0.1003156006 0.00012557896695325984 -0.00016423602685790683
0.5133467317 -0.1003156006 0.0002249093877898676 -7.538319561031646e-05
0.5186682343 -0.1003156006 0.0002857119994273145 7.591778437091289e-05
0.5239896774 -0.1003156006 0.0003453103774907625 0.00022734462976318654
0.5293111205 -0.1003156006 0.00040485132677530583 0.00037412431351261055
0.5346325636 -0.1003156006 0.0004170821344580887 0.0005085956544313015
0.5399540663 -0.1003156006 0.00036795822045769983 0.0006569464444544582
0.5452755094 -0.1003156006 0.00031667568302804 0.0008104875811350839
0.5505969524 -0.1003156006 0.0002716705004016665 0.0009531821029849716
0.5559183955 -0.1003156006 0.00018776480669339864 0.0010587272911356757
0.5612398982 -0.1003156006 7.515062249423813e-05 0.001159733118973725
0.5665613413 -0.1003156006 -3.346755895112759e-05 0.0012597060859601775
0.5718827844 -0.1003156006 -0.00012965363626125725 0.0013362545957185284
0.5772042274 -0.1003156006 -0.00024156441054312548 0.001380645357987888
0.5825257301 -0.1003156006 -0.00035249124641367443 0.0014249444898821718
0.5878471732 -0.1003156006 -0.0004509562898339741 0.0014573924150440244
0.5931686163 -0.1003156006 -0.0005387963286333769 0.001470136766696928
0.5984900594 -0.1003156006 -0.0006287137900940756 0.0014820616181073394
0.6038115621 -0.1003156006 -0.000694909835229806 0.0014797632296507767
0.6091330051 -0.1003156006 -0.0007577407733168586 0.0014781367744980602
0.6144544482 -0.1003156006 -0.0008014227768272563 0.001471988416525463
0.6197758913 -0.1003156006 -0.0008346008910230039 0.0014712497599312308
0.625097394 -0.1003156006 -0.0008577047264539844 0.0014758380177011003
0.6304188371 -0.1003156006 -0.0008692840582121539 0.0014894066839921964
0.6357402802 -0.1003156006 -0.0008824560479247718 0.0015123526763546515
0.6410617828 -0.1003156006 -0.0008880552969601086 0.0015473012590867196
0.6463832259 -0.1003156006 -0.0008871989651883626 0.0015915486593089541
0.651704669 -0.1003156006 -0.0008834414175256953 0.001645691845443325
0.6570261121 -0.1003156006 -0.0008888358399117543 0.0017148684534077881
0.6623476148 -0.1003156006 -0.0008926774098829394 0.0017944969526838034
0.6676690578 -0.1003156006 -0.0009002725725660472 0.0018812079979487518
0.6729905009 -0.1003156006 -0.0009153808540840018 0.0019807921260921553
0.678311944 -0.1003156006 -0.0009360793791827394 0.002084117045175827
0.6836334467 -0.1003156006 -0.0009613375224612565 0.0021943057193015755
0.6889548898 -0.1003156006 -0.0009933100358129417 0.0023101128133873002
0.6942763329 -0.1003156006 -0.0010295140706018061 0.0024306676546656815
0.6995977759 -0.1003156006 -0.0010746501139422327 0.002554933047330983
0.7049192786 -0.1003156006 -0.0011262871717961202 0.00267898812954195
0.7102407217 -0.1003156006 -0.0011750754894113175 0.0028081784372352295
0.7155621648 -0.1003156006 -0.0012256666750814632 0.002941029950538907
0.7208836079 -0.1003156006 -0.0012799185681189008 0.0030786372906750764
0.7262051105 -0.1003156006 -0.0013331885471968069 0.003223144492391587
0.7315265536 -0.1003156006 -0.0013926889743182188 0.0033744634074744572
0.7368479967 -0.1003156006 -0.0014420836397831993 0.003542469349937921
0.7421694398 -0.1003156006 -0.0014897323851349406 0.0037189962084425003
0.7474909425 -0.1003156006 -0.001540938928161864 0.0039022287064013994
0.7528123856 -0.1003156006 -0.0015966523735075713 0.004110065025685126
0.7581338286 -0.1003156006 -0.0016475051969305112 0.004339503844860213
-0.3008363545 -0.09699654579 0.00015560890640623745 0.00011829860929633272
-0.2955148816 -0.09699654579 0.0001592618788273731 7.162644924276797e-05
-0.2901934385 -0.09699654579 0.00010237939029771681 1.4077127177942174e-05
-0.2848719656 -0.09699654579 9.797908611367127e-05 -3.342836595043174e-05
-0.2795505226 -0.09699654579 0.0001550566953014895 -5.580229332052817e-05
-0.2742290497 -0.09699654579 0.0002093009893005419 -0.00010798135754576286
-0.2689076066 -0.09699654579 0.00025772128899990146 -0.00018587393171488978
-0.2635861337 -0.09699654579 0.00027366566565564256 -0.000245672276302695
-0.2582646906 -0.09699654579 0.0002833883753327814 -0.0002574687462359341
-0.2529432178 -0.09699654579 0.00036734569894237033 -0.0002549485021961883
-0.2476217598 -0.09699654579 0.0004946452071991274 -0.0002580697855380043
-0.2423003018 -0.09699654579 0.0005870790357451594 -0.0002714403947995203
-0.2369788438 -0.09699654579 0.0006072138495489973 -0.0003016441459053784
-0.2316573858 -0.09699654579 0.0006597806315015549 -0.0003673558123312721
-0.2263359278 -0.09699654579 0.000707780603171395 -0.0004497860257597081
-0.2210144699 -0.09699654579 0.000721532064601651 -0.00045642594693536996
-0.2156930119 -0.09699654579 0.0007626537440915096 -0.00043928369048888113
-0.2103715539 -0.09699654579 0.0008300268544491215 -0.00041543125995001574
-0.2050500959 -0.09699654579 0.0009307249571807983 -0.00036389135598322237
-0.1997286379 -0.09699654579 0.0010449347508190187 -0.00028719260559594256
-0.19440718 -0.09699654579 0.0011621662519953218 -0.000209968140033117
-0.189085722 -0.09699654579 0.0011611156266818322 -0.00015713389539492165
-0.183764264 -0.09699654579 0.0011246193577283765 -0.00011306385992996432
-0.178442806 -0.09699654579 0.0010657513862711244 -8.209302964265044e-05
-0.173121348 -0.09699654579 0.0010346128674140387 -4.0406776214490706e-05
-0.16779989 -0.09699654579 0.0010070998021299421 2.310533825208497e-05
-0.1624784321 -0.09699654579 0.0009784552301803176 9.996242338047363e-05
-0.1571569741 -0.09699654579 0.0009374988998304471 0.00013571479724899623
-0.1518355161 -0.09699654579 0.0008858985205712086 0.00015942052416736374
-0.1465140581 -0.09699654579 0.0008242565197820123 0.0001816282154654879
-0.1411926001 -0.09699654579 0.0007729535974001696 0.00019412303202060618
-0.1358711421 -0.09699654579 0.0007631778078222828 0.0001863325837695922
-0.1305496842 -0.09699654579 0.0007535636215949724 0.00017749827309096513
-0.1252282262 -0.09699654579 0.0007437921185505429 0.00017056418619659162
-0.1199067682 -0.09699654579 0.0007304302927746407 0.00017322101757012793
-0.1145853102 -0.09699654579 0.0007137419078705313 0.00018041784692678247
-0.1092638522 -0.09699654579 0.0006966742561228882 0.00018891170419324776
-0.1039423943 -0.09699654579 0.0006786524792950004 0.0001980281948553718
-0.09862093627 -0.09699654579 0.0006511543811205712 0.00020072060232998826
-0.09329947084 -0.09699654579 0.0006242773106796708 0.00020250520454216797
-0.08797801286 -0.09699654579 0.0005978870336202316 0.00020310193495151686
-0.08265655488 -0.09699654579 0.0005718099855092514 0.00020308096786042935
-0.0773350969 -0.09699654579 0.0005640196610712437 0.00019226763590307456
-0.07201363891 -0.09699654579 0.0005548152510330937 0.000180015293622908
-0.06669218093 -0.09699654579 0.0005464294662386821 0.00016772518976442965
-0.06137072667 -0.09699654579 0.0005373124173946566 0.000155745271853679
-0.05604926869 -0.09699654579 0.0005441105827841158 0.00014449803070288193
-0.05072781071 -0.09699654579 0.0005482263084502991 0.00013483297038475222
-0.045406349 -0.09699654579 0.0005554290345836771 0.00012510931145807413
-0.04008489102 -0.09699654579 0.0005632493419318678 0.00011502593813047339
-0.03476343304 -0.09699654579 0.000569088056477354 0.00011050672211936359
-0.02944197692 -0.09699654579 0.0005664879647294217 0.0001205499368300099
-0.02412051894 -0.09699654579 0.0005643572196071093 0.00013050803717331
-0.01879905909 -0.09699654579 0.0005613325162140638 0.00014050423962273532
-0.01347760204 -0.09699654579 0.0005599072081204915 0.00015079796645320152
-0.00815614406 -0.09699654579 0.0005619208480826186 0.0001532577513327863
-0.00283468538 -0.09699654579 0.0005686953557004239 0.00015026124937841863
0.002486772602 -0.09699654579 0.0005748019416692632 0.00014651316626600265
0.007808230817 -0.09699654579 0.0005808666710124439 0.00014275739243738703
0.0131296888 -0.09699654579 0.0005857167878642203 0.00013945383516604255
0.01845114678 -0.09699654579 0.0005987668923259563 0.0001456206276227067
0.02377260476 -0.09699654579 0.0006163902322722076 0.0001592026533131602
0.02909406275 -0.09699654579 0.0006334241456667541 0.00017307906220004625
0.03441552073 -0.09699654579 0.0006509482227348511 0.00018702312929640673
0.03973697871 -0.09699654579 0.000668719561808296 0.00020057815898985324
0.04505843669 -0.09699654579 0.0006756480526391115 0.00021644346223331632
0.05037989467 -0.09699654579 0.00066615956050511 0.0002376982035335859
0.05570135266 -0.09699654579 0.0006561711731460289 0.00025912915759033806
0.06102281436 -0.09699654579 0.0006442970971394701 0.000281381295365721
0.06634426862 -0.09699654579 0.0006351960695555574 0.00030244377962410784
0.0716657266 -0.09699654579 0.0006253714885610455 0.00032345424095531075
0.07698718458 -0.09699654579 0.0006017342685515095 0.00033128395918408495
0.08230864257 -0.09699654579 0.0005747928649015936 0.0003383965617644951
0.08763010055 -0.09699654579 0.0005499678065867561 0.0003448471888592085
0.09295155853 -0.09699654579 0.0005242271028243783 0.0003514801885980791
0.09827301651 -0.09699654579 0.000499458064464949 0.00035817671744256134
0.1035944745 -0.09699654579 0.00046537899836586563 0.00035473310874031046
0.1089159325 -0.09699654579 0.00042012429839345493 0.00033177785200724086
0.1142373979 -0.09699654579 0.0003790221408194629 0.00030643492203416404
0.1195588559 -0.09699654579 0.0003387818551177624 0.00027880607641093513
0.1248803139 -0.09699654579 0.00029836051112671556 0.0002512129937292359
0.1302017719 -0.09699654579 0.00025699957650239665 0.00022566297707426038
0.1355232298 -0.09699654579 0.00022997455579882326 0.00017751407184172285
0.1408446878 -0.09699654579 0.00022055822704707538 0.00011294742952986858
0.1461661458 -0.09699654579 0.00021149401048111582 4.8340869496675914e-05
0.1514876038 -0.09699654579 0.00020310621588080774 -1.515833478723616e-05
0.1568090618 -0.09699654579 0.00019320339687537276 -7.856336826952998e-05
0.1621305197 -0.09699654579 0.00018589306941862137 -0.00014531710848865643
0.1674519777 -0.09699654579 0.0002535998111433485 -0.00021081796516661327
0.1727734357 -0.09699654579 0.00034669847582335424 -0.0002740164930323068
0.1780948937 -0.09699654579 0.00044342298516571264 -0.00033886270088168927
0.1834163517 -0.09699654579 0.0005386410470832548 -0.0004033209187844842
0.1887378097 -0.09699654579 0.0006297637999549706 -0.00046410972862821515
0.1940592676 -0.09699654579 0.0007199365654717789 -0.0005248406300517505
0.1993807256 -0.09699654579 0.0008662988128967302 -0.00046771254683755187
0.2047021836 -0.09699654579 0.001029358793504286 -0.0003790161978381828
0.2100236416 -0.09699654579 0.0011733290669929664 -0.00028305944953112733
0.2153450996 -0.09699654579 0.0013162486522181518 -0.0001858435699961654
0.2206665576 -0.09699654579 0.0014585088885068665 -8.866648270193526e-05
0.2259880155 -0.09699654579 0.0016041143974887258 8.166336070074402e-06
0.2313094735 -0.09699654579 0.0016036804360316963 0.00023231036285045306
0.2366309315 -0.09699654579 0.0015694524999104735 0.0004867043437922488
0.2419523895 -0.09699654579 0.001535415180408285 0.0007412092399708923
0.2472738475 -0.09699654579 0.0015017221163177025 0.0009956072666093565
0.2525953054 -0.09699654579 0.0014692545068641166 0.0012358296708028082
0.2579167783 -0.09699654579 0.0014339293334501018 0.0014641727005213574
0.2632382214 -0.09699654579 0.001186530330010314 0.001532915587541089
0.2685596943 -0.09699654579 0.0008949894312944466 0.0015687696031810824
0.2738811374 -0.09699654579 0.0006185886391879778 0.0016030549827324907
0.2792026103 -0.09699654579 0.0003580156653024597 0.0016355846739687264
0.2845240533 -0.09699654579 9.379423454016121e-05 0.0016683783296365159
0.2898455262 -0.09699654579 -0.00017479090674942243 0.0017022286077782172
0.2951669693 -0.09699654579 -0.0002912060238787733 0.0014640064321955666
0.3004884422 -0.09699654579 -0.00038364276611688115 0.0012172984395362172
0.3058098853 -0.09699654579 -0.0004834426246711016 0.000969815121448601
0.3111313581 -0.09699654579 -0.0005820474437204765 0.0007222383163919153
0.3164528012 -0.09699654579 -0.0006752246678576572 0.0004864665742283869
0.3217742741 -0.09699654579 -0.000744256507435695 0.0002800912747577501
0.3270957172 -0.09699654579 -0.0005122563809649889 0.00019197119344860908
0.3324171901 -0.09699654579 -0.0002795189760459409 0.00010393587764629127
0.3377386332 -0.09699654579 -5.815285796285193e-05 2.0874124738432278e-05
0.343060106 -0.09699654579 0.00014900166181498504 -5.750750165568936e-05
0.3483815491 -0.09699654579 0.00036033033178087373 -0.00013696495190188403
0.353703022 -0.09699654579 0.0005422919421139738 -0.0001073667822863909
0.3590244651 -0.09699654579 0.0006618376004698384 0.00012023285422661892
0.364345938 -0.09699654579 0.0007680234348796539 0.00032624662304077124
0.369667381 -0.09699654579 0.0008747576125902747 0.0005317023229759049
0.3749888539 -0.09699654579 0.000978134998879336 0.0007358620332656276
0.380310297 -0.09699654579 0.0010736074460305852 0.0009263120645025126
0.3856317699 -0.09699654579 0.0009266881508536898 0.0010772435458904954
0.390953213 -0.09699654579 0.0007151697266056208 0.0012262855309250228
0.3962746859 -0.09699654579 0.0004948528235530236 0.0013822771592131306
0.4015961289 -0.09699654579 0.0002902902974680073 0.0015245416316579821
0.4069176018 -0.09699654579 9.71183924854877e-05 0.0016564634223450708
0.4122390449 -0.09699654579 -0.000122103966135536 0.0016734118327359727
0.4175605178 -0.09699654579 -0.00037930468800301053 0.0015406135349817632
0.4228819609 -0.09699654579 -0.0006094018790105191 0.001419504601454232
0.4282034338 -0.09699654579 -0.0008311591243803013 0.0013035563419772143
0.4335248768 -0.09699654579 -0.0010529120920364499 0.00118604152301226
0.4388463497 -0.09699654579 -0.0012201072711281195 0.0010209480933074434
0.4441677928 -0.09699654579 -0.0012270051603170819 0.0007921296365369528
0.4494892657 -0.09699654579 -0.0012340371347325674 0.0005666411995852393
0.4548107088 -0.09699654579 -0.001241364525730481 0.000341318407422023
0.4601321816 -0.09699654579 -0.001247969608525377 0.00012016328920710294
0.4654536247 -0.09699654579 -0.0011826347823758073 -3.874388849005106e-05
0.4707750976 -0.09699654579 -0.0010081998785019474 -0.0001478705486227835
0.4760965407 -0.09699654579 -0.0008219426483122128 -0.00026435579320054444
0.4814180136 -0.09699654579 -0.0006491197433630307 -0.0003737930819531543
0.4867394567 -0.09699654579 -0.0004890595638823911 -0.0004752019047364829
0.4920609295 -0.09699654579 -0.00031040622576181066 -0.00044233515651881264
0.4973823726 -0.09699654579 -0.0001311632838327892 -0.00037467107979549777
0.5027038455 -0.09699654579 3.709292941687014e-05 -0.00030935391174099846
0.5080252886 -0.09699654579 0.0002104416792514479 -0.0002448744151851717
0.5133467317 -0.09699654579 0.00033372025358069314 -0.0001295087933585737
0.5186682343 -0.09699654579 0.00039581593865841515 4.201830904255215e-05
0.5239896774 -0.09699654579 0.0004542173321309593 0.00019372960867889414
0.5293111205 -0.09699654579 0.0005141914184502371 0.00035600595156770116
0.5346325636 -0.09699654579 0.0005225616295851069 0.0005262428753683915
0.5399540663 -0.09699654579 0.00046580814387515193 0.0006861517455389317
0.5452755094 -0.09699654579 0.00041355001513087935 0.0008392004345544429
0.5505969524 -0.09699654579 0.0003559098745409927 0.000999522243520241
0.5559183955 -0.09699654579 0.00024762074910995575 0.0011214871508804362
0.5612398982 -0.09699654579 0.00013661256185148665 0.0012230803410637763
0.5665613413 -0.09699654579 2.375713672179852e-05 0.0013243746623183422
0.5718827844 -0.09699654579 -0.00010657981018139295 0.0014059673962398354
0.5772042274 -0.09699654579 -0.00022341354635393667 0.0014498438309279793
0.5825257301 -0.09699654579 -0.000338420655035218 0.0014936532733602864
0.5878471732 -0.09699654579 -0.00045502941269725915 0.0015192079894754756
0.5931686163 -0.09699654579 -0.0005477233797815693 0.0015258058127447175
0.5984900594 -0.09699654579 -0.0006433426617300122 0.0015264586643294292
0.6038115621 -0.09699654579 -0.0007149446977075689 0.0015209465803026874
0.6091330051 -0.09699654579 -0.0007718739051084691 0.0015057531443101186
0.6144544482 -0.09699654579 -0.0008210102699821272 0.0014972546124360265
0.6197758913 -0.09699654579 -0.0008469668962232217 0.001490682028797427
0.625097394 -0.09699654579 -0.0008703677501894506 0.0014870415017582837
0.6304188371 -0.09699654579 -0.000876191297999833 0.0014983792613209024
0.6357402802 -0.09699654579 -0.0008770244572520893 0.001512451300863543
0.6410617828 -0.09699654579 -0.0008798156708065005 0.001542217954597406
0.6463832259 -0.09699654579 -0.0008714804212272091 0.001587352507889849
0.651704669 -0.09699654579 -0.0008626181610210423 0.0016430555524294072
0.6570261121 -0.09699654579 -0.0008594136325287989 0.0017165535134688774
0.6623476148 -0.09699654579 -0.0008616871023223149 0.001796923995896817
0.6676690578 -0.09699654579 -0.0008648787493797608 0.0018888465647434387
0.6729905009 -0.09699654579 -0.0008745910254105043 0.0019904027321587226
0.678311944 -0.09699654579 -0.0008891054990075413 0.002099815370618511
0.6836334467 -0.09699654579 -0.0009089460362506133 0.0022141680061344344
0.6889548898 -0.09699654579 -0.0009403294301837731 0.002331997695133941
0.6942763329 -0.09699654579 -0.0009741227559363031 0.002455657832084575
0.6995977759 -0.09699654579 -0.0010147894252469465 0.002582539243655847
0.7049192786 -0.09699654579 -0.0010645537321694704 0.0027100101073741258
0.7102407217 -0.09699654579 -0.0011165862242597437 0.002840190928965581
0.7155621648 -0.09699654579 -0.001166986719317637 0.0029742819458690494
0.7208836079 -0.09699654579 -0.0012130692947781992 0.003113371970179811
0.7262051105 -0.09699654579 -0.0012642375014457255 0.003256747583659824
0.7315265536 -0.09699654579 -0.0013096932032003869 0.00340571457675269
0.7368479967 -0.09699654579 -0.0013566947237984566 0.0035676475976529807
0.7421694398 -0.09699654579 -0.0013999210301516903 0.0037436175652444566
0.7474909425 -0.09699654579 -0.0014351142686993158 0.003931900295453717
0.7528123856 -0.09699654579 -0.0014723861113285215 0.004140272573972937
0.7581338286 -0.09699654579 -0.001515318944843142 0.004368893909421919
-0.3008363545 -0.09367749095 0.00010545754308637371 0.00013335104838735793
-0.2955148816 -0.09367749095 8.414617519030653e-05 8.384378820721863e-05
-0.2901934385 -0.09367749095 3.889307835116884e-05 1.9088836887844283e-05
-0.2848719656 -0.09367749095 5.485478003880072e-05 -1.163655157426083e-05
-0.2795505226 -0.09367749095 0.00011503383661680991 -3.935063888477955e-05
-0.2742290497 -0.09367749095 0.00012789677897648364 -0.00012797864943497894
-0.2689076066 -0.09367749095 0.00015470508655843207 -0.00020736409293749182
-0.2635861337 -0.09367749095 0.0001687820121071034 -0.0002847260970016212
-0.2582646906 -0.09367749095 0.00020742410820835246 -0.000312035749191628
-0.2529432178 -0.09367749095 0.00029932892762718494 -0.0003038815971487978
-0.2476217598 -0.09367749095 0.0004137579239798681 -0.0003066945158493243