VARIABLES = X,Y,phix,phiy
ZONE I=200,J=200,F=POINT 
-0.3008363545 -0.1003156006 0.0002776080488413424 0.00018572763498064232
-0.2955148816 -0.1003156006 0.0003849379033758631 0.00021235403096356685
-0.2901934385 -0.1003156006 0.0003317149895529715 0.0002113385315280337
-0.2848719656 -0.1003156006 0.0002651292423964614 0.00021021325461945372
-0.2795505226 -0.1003156006 0.00018743974169118372 0.00017775797622535675
-0.2742290497 -0.1003156006 0.000138115756589386 0.00011899792748886624
-0.2689076066 -0.1003156006 9.535707361429074e-05 1.7669321232209445e-05
-0.2635861337 -0.1003156006 4.116379244460305e-05 5.6709915967334094e-05
-0.2582646906 -0.1003156006 -9.855257106638068e-07 0.00018560175819697517
-0.2529432178 -0.1003156006 -6.75691383885183e-06 0.00034714216189220444
-0.2476217598 -0.1003156006 1.0350081280711297e-05 0.0005468219246314379
-0.2423003018 -0.1003156006 6.927369897984666e-05 0.0006144477542912207
-0.2369788438 -0.1003156006 8.903102319734362e-05 0.0005944289594464265
-0.2316573858 -0.1003156006 0.00010335793932339029 0.0005756101029744788
-0.2263359278 -0.1003156006 7.471781532305805e-05 0.0005875226153405619
-0.2210144699 -0.1003156006 -8.646560014267904e-05 0.0006943087704640546
-0.2156930119 -0.1003156006 -0.00025493309740975235 0.0008207454095049955
-0.2103715539 -0.1003156006 -0.0004464490177401608 0.0009616804600987973
-0.2050500959 -0.1003156006 -0.0005582695955077466 0.0009550515766020417
-0.1997286379 -0.1003156006 -0.000691881462898842 0.000891246616235577
-0.19440718 -0.1003156006 -0.0008641696195713207 0.0008257744125602156
-0.189085722 -0.1003156006 -0.0009489759378164433 0.0006648429375344508
-0.183764264 -0.1003156006 -0.001030943987864865 0.00048231828800259267
-0.178442806 -0.1003156006 -0.001119430558542404 0.0003056934777968825
-0.173121348 -0.1003156006 -0.0011224101101646449 0.0001910280281435185
-0.16779989 -0.1003156006 -0.0010988980074016176 9.765780150042029e-05
-0.1624784321 -0.1003156006 -0.0010746180252577695 1.7772845389189193e-06
-0.1571569741 -0.1003156006 -0.0010299384232319172 -7.66247949497496e-05
-0.1518355161 -0.1003156006 -0.0009547489969025095 -0.00015183726382745954
-0.1465140581 -0.1003156006 -0.0008724095974424486 -0.00023004273868722084
-0.1411926001 -0.1003156006 -0.0007888116167266348 -0.0003009194903900711
-0.1358711421 -0.1003156006 -0.0007042737664553982 -0.00035260335803734944
-0.1305496842 -0.1003156006 -0.0006206991659416518 -0.0004042540073089022
-0.1252282262 -0.1003156006 -0.0005236232124844179 -0.00045166068563945303
-0.1199067682 -0.1003156006 -0.0004670719512202216 -0.00045362775719885815
-0.1145853102 -0.1003156006 -0.00042142942042390453 -0.0004432193746798838
-0.1092638522 -0.1003156006 -0.00037819525654287945 -0.00042622885128250105
-0.1039423943 -0.1003156006 -0.000336095680144896 -0.0004088903028385659
-0.09862093627 -0.1003156006 -0.00035325859028939284 -0.00034284264871050274
-0.09329947084 -0.1003156006 -0.0003736349878043012 -0.0002735362524893092
-0.08797801286 -0.1003156006 -0.0003931888927375062 -0.00020413105799294438
-0.08265655488 -0.1003156006 -0.0004131367007293388 -0.00013556233259574466
-0.0773350969 -0.1003156006 -0.0004223928677986962 -9.998939535391369e-05
-0.07201363891 -0.1003156006 -0.00043283933588307403 -6.43883979644358e-05
-0.06669218093 -0.1003156006 -0.00044242121651079006 -2.8740047936547302e-05
-0.06137072667 -0.1003156006 -0.00044369172312114897 1.779329530275028e-06
-0.05604926869 -0.1003156006 -0.00042539853365677 7.438485114302545e-06
-0.05072781071 -0.1003156006 -0.00040388142183028265 8.280398936003237e-06
-0.045406349 -0.1003156006 -0.0003831238474234223 9.626206406329178e-06
-0.04008489102 -0.1003156006 -0.0003592983302295989 9.706570783317017e-06
-0.03476343304 -0.1003156006 -0.00034161384201511437 1.382723022796591e-05
-0.02944197692 -0.1003156006 -0.0003281164405014899 2.623829693243828e-05
-0.02412051894 -0.1003156006 -0.0003190510406007559 3.969712290327112e-05
-0.01879905909 -0.1003156006 -0.00030874793488631095 5.457465580536396e-05
-0.01347760204 -0.1003156006 -0.00029887377119313746 6.79038070523308e-05
-0.00815614406 -0.1003156006 -0.0003099905551587441 8.373871582330404e-05
-0.00283468538 -0.1003156006 -0.0003406872588751406 0.00010113029831566906
0.002486772602 -0.1003156006 -0.00037540313175607064 0.0001210143735051649
0.007808230817 -0.1003156006 -0.0004088672730396919 0.0001409105521898474
0.0131296888 -0.1003156006 -0.00043972462476276394 0.00015873447320791117
0.01845114678 -0.1003156006 -0.00046941481897501457 0.00015011753726209518
0.02377260476 -0.1003156006 -0.0004992180381913962 0.00012033998426087905
0.02909406275 -0.1003156006 -0.000529039651414521 8.767464705745567e-05
0.03441552073 -0.1003156006 -0.0005614156133847089 5.504272710548944e-05
0.03973697871 -0.1003156006 -0.0005919453320164985 2.4893563107246576e-05
0.04505843669 -0.1003156006 -0.0005925515061535996 -3.596601301194401e-06
0.05037989467 -0.1003156006 -0.0005410221977213749 -3.1835789131367344e-05
0.05570135266 -0.1003156006 -0.0004857084771828708 -6.316228117785875e-05
0.06102281436 -0.1003156006 -0.0004287889729836974 -9.503630441264681e-05
0.06634426862 -0.1003156006 -0.0003772746625613668 -0.0001242962676461691
0.0716657266 -0.1003156006 -0.0003279126771840335 -0.0001519392558284143
0.07698718458 -0.1003156006 -0.0002849970551695176 -0.00010952513533921139
0.08230864257 -0.1003156006 -0.00024360253697257861 -6.178777077562975e-05
0.08763010055 -0.1003156006 -0.00019980556901995803 -1.1631709527126125e-05
0.09295155853 -0.1003156006 -0.00015794109831854258 3.6259692803641454e-05
0.09827301651 -0.1003156006 -0.0001181351329021068 8.267278542855928e-05
0.1035944745 -0.1003156006 -0.00010343509102037956 0.000130166184246102
0.1089159325 -0.1003156006 -0.00013484430822649642 0.00017868776876173154
0.1142373979 -0.1003156006 -0.00016890339329671795 0.00022712970479245436
0.1195588559 -0.1003156006 -0.00019835256119139945 0.0002713066376912857
0.1248803139 -0.1003156006 -0.0002311233422501688 0.00031714329850953435
0.1302017719 -0.1003156006 -0.00026377597514784583 0.0003638593093858517
0.1355232298 -0.1003156006 -0.0003044236824078579 0.00036559017840147556
0.1408446878 -0.1003156006 -0.0003480942521016065 0.0003347593507932018
0.1461661458 -0.1003156006 -0.00038809916908153505 0.0003075096371173302
0.1514876038 -0.1003156006 -0.00042776531432807483 0.0002802941843630918
0.1568090618 -0.1003156006 -0.00046970237542383954 0.0002530935896996955
0.1621305197 -0.1003156006 -0.0005114026888638325 0.00022582614414125654
0.1674519777 -0.1003156006 -0.0005048508890216518 0.00019441986290663326
0.1727734357 -0.1003156006 -0.00047728202049009843 0.00015977338395489461
0.1780948937 -0.1003156006 -0.00045179162028519023 0.0001251236454039018
0.1834163517 -0.1003156006 -0.0004254378084108484 9.062014336480155e-05
0.1887378097 -0.1003156006 -0.000400000774713402 5.8024532595389685e-05
0.1940592676 -0.1003156006 -0.0003753282240521161 2.8910411910322026e-05
0.1993807256 -0.1003156006 -0.0003349980455443927 4.751178449951589e-05
0.2047021836 -0.1003156006 -0.0002944837697628416 8.197336673039397e-05
0.2100236416 -0.1003156006 -0.0002486485563789999 0.00011620803560111695
0.2153450996 -0.1003156006 -0.0002103038007261256 0.00014772169248628082
0.2206665576 -0.1003156006 -0.0001691403901830889 0.0001805745262505648
0.2259880155 -0.1003156006 -0.00012887285965242496 0.00021350617771049904
0.2313094735 -0.1003156006 -0.00013964698363084452 0.0002477337415957389
0.2366309315 -0.1003156006 -0.00016466831599364163 0.0002784192597380523
0.2419523895 -0.1003156006 -0.00018312205254010898 0.00030765442136304974
0.2472738475 -0.1003156006 -0.00020475507091378712 0.00033702115232569574
0.2525953054 -0.1003156006 -0.00022016288616733728 0.0003673559735715325
0.2579167783 -0.1003156006 -0.0002338388418235291 0.0003968392807248579
0.2632382214 -0.1003156006 -0.0002458187905839336 0.0003968293896207403
0.2685596943 -0.1003156006 -0.00025733086461245103 0.0003887435605703308
0.2738811374 -0.1003156006 -0.00026929349233809855 0.0003801771410303088
0.2792026103 -0.1003156006 -0.00028221457186705 0.000372290804130094
0.2845240533 -0.1003156006 -0.00029389130114922346 0.000364737550272096
0.2898455262 -0.1003156006 -0.0003033012817204975 0.0003572317285256115
0.2951669693 -0.1003156006 -0.0002956769070260095 0.00036411769433823985
0.3004884422 -0.1003156006 -0.0002858468984358801 0.00037299525841456307
0.3058098853 -0.1003156006 -0.00027864966583000534 0.00037984042265698986
0.3111313581 -0.1003156006 -0.0002695410793336858 0.00038664069560842996
0.3164528012 -0.1003156006 -0.0002642542162687766 0.00039342187186785084
0.3217742741 -0.1003156006 -0.0002575207717573592 0.0004003195183846542
0.3270957172 -0.1003156006 -0.00027140656248985425 0.00040388077212544785
0.3324171901 -0.1003156006 -0.0002892079433030203 0.0004075192702782989
0.3377386332 -0.1003156006 -0.0003031994949399058 0.00041129209558954697
0.343060106 -0.1003156006 -0.0003194518309682181 0.00041490787749753156
0.3483815491 -0.1003156006 -0.00033150336832084 0.00041704151296724035
0.353703022 -0.1003156006 -0.00034435801247268945 0.0004092984547391715
0.3590244651 -0.1003156006 -0.0003527445985870868 0.00037691936689400435
0.364345938 -0.1003156006 -0.00035719563633604016 0.0003445312018539152
0.369667381 -0.1003156006 -0.0003656510279032196 0.00031610801787376324
0.3749888539 -0.1003156006 -0.0003729306930985639 0.0002873628995964394
0.380310297 -0.1003156006 -0.00037765079014685814 0.00025728274080450585
0.3856317699 -0.1003156006 -0.00035554382830732604 0.0002353325377021311
0.390953213 -0.1003156006 -0.00032801283680901214 0.0002177650215109808
0.3962746859 -0.1003156006 -0.00030154590648305454 0.00020019504990741136
0.4015961289 -0.1003156006 -0.0002746239679868965 0.00018234403244769048
0.4069176018 -0.1003156006 -0.00025336545344170326 0.0001639005865983821
0.4122390449 -0.1003156006 -0.00023403026570684466 0.00015789469962527883
0.4175605178 -0.1003156006 -0.00021677783917656976 0.0001682537478392675
0.4228819609 -0.1003156006 -0.0001963348785267566 0.00017998974595659004
0.4282034338 -0.1003156006 -0.00017270044138601156 0.00019131517967103565
0.4335248768 -0.1003156006 -0.00015620314157803144 0.00020068752440439183
0.4388463497 -0.1003156006 -0.0001441028390733667 0.00021142173787248343
0.4441677928 -0.1003156006 -0.00014748838547262808 0.00022642641894917267
0.4494892657 -0.1003156006 -0.00014846419988447435 0.0002409285543239039
0.4548107088 -0.1003156006 -0.00015075387255428314 0.0002540501436707618
0.4601321816 -0.1003156006 -0.000151628520270598 0.0002681986529183715
0.4654536247 -0.1003156006 -0.00015901862765699897 0.00027803908731040814
0.4707750976 -0.1003156006 -0.00016797406769969406 0.00028137554613515115
0.4760965407 -0.1003156006 -0.0001785578284600912 0.00028487301436825913
0.4814180136 -0.1003156006 -0.0001888059297824442 0.0002882267242081879
0.4867394567 -0.1003156006 -0.00019854316204351256 0.00029162745577493936
0.4920609295 -0.1003156006 -0.0002006118129487887 0.0002899814339108025
0.4973823726 -0.1003156006 -0.00020412724369838641 0.0002871618849597079
0.5027038455 -0.1003156006 -0.00020590913858324023 0.0002843387218526794
0.5080252886 -0.1003156006 -0.00020910863423946954 0.0002816551686368048
0.5133467317 -0.1003156006 -0.00020426388574337434 0.00028086142142983193
0.5186682343 -0.1003156006 -0.0001985659038062027 0.0002811476775109843
0.5239896774 -0.1003156006 -0.00019116195008103877 0.0002813132874785789
0.5293111205 -0.1003156006 -0.00018473523248817885 0.00028175593375458967
0.5346325636 -0.1003156006 -0.00017726345896044337 0.00028541398446614206
0.5399540663 -0.1003156006 -0.00016833898254234647 0.0002918467538960891
0.5452755094 -0.1003156006 -0.00015747909257609826 0.0002981873608040326
0.5505969524 -0.1003156006 -0.00014925121755515565 0.00030478222845782733
0.5559183955 -0.1003156006 -0.00014019616412999506 0.0003153279518337564
0.5612398982 -0.1003156006 -0.00013529561929103044 0.0003288551946467711
0.5665613413 -0.1003156006 -0.0001299093297796946 0.00034200807330195455
0.5718827844 -0.1003156006 -0.0001222037848603692 0.00035492318769453785
0.5772042274 -0.1003156006 -0.0001266339201897718 0.0003713884570750365
0.5825257301 -0.1003156006 -0.0001252783741100678 0.00038826729542486667
0.5878471732 -0.1003156006 -0.00012803962615934834 0.00040289969416416215
0.5931686163 -0.1003156006 -0.00013286611274022328 0.0004167906176150013
0.5984900594 -0.1003156006 -0.00013529450644405542 0.0004316304776367493
0.6038115621 -0.1003156006 -0.00014298556382326533 0.00044379597303781707
0.6091330051 -0.1003156006 -0.00014882705217524183 0.0004552380358988158
0.6144544482 -0.1003156006 -0.00015862830672479548 0.00046554486378450516
0.6197758913 -0.1003156006 -0.00016570628693700275 0.0004744559374270383
0.625097394 -0.1003156006 -0.00017456536754990602 0.0004830036385867236
0.6304188371 -0.1003156006 -0.0001828546840599922 0.0004921432612741357
0.6357402802 -0.1003156006 -0.0001928888713933777 0.000501013194396085
0.6410617828 -0.1003156006 -0.0002011625944723189 0.0005093806987312866
0.6463832259 -0.1003156006 -0.00020552752611330253 0.0005202567138803516
0.651704669 -0.1003156006 -0.00020986231896716085 0.0005321334419520715
0.6570261121 -0.1003156006 -0.00022333559142336356 0.0005481538461883015
0.6623476148 -0.1003156006 -0.00023439013760463394 0.0005683862079189589
0.6676690578 -0.1003156006 -0.00024582179909695177 0.0005919064519139054
0.6729905009 -0.1003156006 -0.0002628270160948721 0.0006235631851311085
0.678311944 -0.1003156006 -0.0002841137528514983 0.0006568974062446815
0.6836334467 -0.1003156006 -0.0003089331534525588 0.0006949304387249264
0.6889548898 -0.1003156006 -0.0003411583971713962 0.0007400235846957023
0.6942763329 -0.1003156006 -0.0003831010129191669 0.0007919142104830338
0.6995977759 -0.1003156006 -0.0004348618068877663 0.0008486606264032213
0.7049192786 -0.1003156006 -0.0004997665585238596 0.0009092707052896963
0.7102407217 -0.1003156006 -0.0005774079655753521 0.0009766861077705638
0.7155621648 -0.1003156006 -0.0006801829066645947 0.0010435985613311827
0.7208836079 -0.1003156006 -0.0007988871978238492 0.0011093805443354282
0.7262051105 -0.1003156006 -0.0009341137391326143 0.0011767847235242244
0.7315265536 -0.1003156006 -0.0010973081682844254 0.001239222292099667
0.7368479967 -0.1003156006 -0.001297346030968534 0.0012941139849258492
0.7421694398 -0.1003156006 -0.0015263799527382702 0.001342273026377631
0.7474909425 -0.1003156006 -0.0017686175729997157 0.0013717017306062841
0.7528123856 -0.1003156006 -0.002059825436142619 0.0013756725913709256
0.7581338286 -0.1003156006 -0.0023881518454371355 0.0013555962792395299
-0.3008363545 -0.09699654579 0.00026844157287024057 0.0002058540737744474
-0.2955148816 -0.09699654579 0.00039126146751779483 0.000248004629979681
-0.2901934385 -0.09699654579 0.0004273460464730496 0.000273434659708639
-0.2848719656 -0.09699654579 0.0003577434184668334 0.0002614611252784983
-0.2795505226 -0.09699654579 0.00025763695827073685 0.0002285781197845926
-0.2742290497 -0.09699654579 0.0001901359828682846 0.00016256484717510467
-0.2689076066 -0.09699654579 0.00016309057747009945 3.4052455600621884e-05
-0.2635861337 -0.09699654579 0.00014221099165629984 -3.201294134473896e-05
-0.2582646906 -0.09699654579 9.403564404202933e-05 8.524867362258193e-05
-0.2529432178 -0.09699654579 9.13557098208439e-05 0.00026830781509011304
-0.2476217598 -0.09699654579 0.00014613917060695995 0.0005064475053153536
-0.2423003018 -0.09699654579 0.00021628451543313505 0.0006744937413302662
-0.2369788438 -0.09699654579 0.0002459177426171111 0.0006435412697065019
-0.2316573858 -0.09699654579 0.0002471334011867986 0.0006346442328753024
-0.2263359278 -0.09699654579 0.0002418635130758063 0.0006571054144258236
-0.2210144699 -0.09699654579 9.946762552144909e-05 0.0007692152188558742
-0.2156930119 -0.09699654579 -9.120455568995358e-05 0.0009077638979121249
-0.2103715539 -0.09699654579 -0.00031026576148665953 0.0009850585850369278
-0.2050500959 -0.09699654579 -0.00047150785212306994 0.0009502923085452489
-0.1997286379 -0.09699654579 -0.0006440876909816616 0.0008848672018420826
-0.19440718 -0.09699654579 -0.0008248256354675245 0.0008456287970678831
-0.189085722 -0.09699654579 -0.0009473698127313134 0.0006936783078695633
-0.183764264 -0.09699654579 -0.0010457760451658155 0.0005168926138434918
-0.178442806 -0.09699654579 -0.0011722742206493528 0.00031603405358905846
-0.173121348 -0.09699654579 -0.001192539453039525 0.00019076830701162664
-0.16779989 -0.09699654579 -0.0011694950542654446 9.047795531064425e-05
-0.1624784321 -0.09699654579 -0.001144611093927072 -2.828202404812927e-05
-0.1571569741 -0.09699654579 -0.0010819925211146665 -0.00014252873980540807
-0.1518355161 -0.09699654579 -0.0010013977008737698 -0.00023205187853988151
-0.1465140581 -0.09699654579 -0.0009224018924908238 -0.000315321351271117
-0.1411926001 -0.09699654579 -0.0008393189340269773 -0.00038886016535007867
-0.1358711421 -0.09699654579 -0.0007395636470520486 -0.0004354738098725856
-0.1305496842 -0.09699654579 -0.0006318405033838043 -0.00047950150121584776
-0.1252282262 -0.09699654579 -0.0005337807545738512 -0.0005199013542696396
-0.1199067682 -0.09699654579 -0.00048438310438902565 -0.0005051017691943553
-0.1145853102 -0.09699654579 -0.00045149351035427834 -0.0004784023403858854
-0.1092638522 -0.09699654579 -0.00041833870339172104 -0.0004489728850151485
-0.1039423943 -0.09699654579 -0.000385510834634039 -0.00041055072835619863
-0.09862093627 -0.09699654579 -0.0004048477234398941 -0.0003362387849980398
-0.09329947084 -0.09699654579 -0.00042062185409916697 -0.0002612544196933306
-0.08797801286 -0.09699654579 -0.0004325172087781032 -0.0001858678183566992
-0.08265655488 -0.09699654579 -0.00044666698733883566 -0.00011277309520007097
-0.0773350969 -0.09699654579 -0.00044772902076608737 -8.332233019069022e-05
-0.07201363891 -0.09699654579 -0.0004389443730122296 -5.787668640594292e-05
-0.06669218093 -0.09699654579 -0.0004307502499616096 -3.2482253284857516e-05
-0.06137072667 -0.09699654579 -0.00042227452763770804 -8.540001123195119e-06
-0.05604926869 -0.09699654579 -0.0003954851054186542 -5.721738697014908e-06
-0.05072781071 -0.09699654579 -0.0003683616680257102 -6.850755467719494e-06
-0.045406349 -0.09699654579 -0.0003412979402041835 -8.019037869931079e-06
-0.04008489102 -0.09699654579 -0.00031397532664269794 -8.8358204826977e-06
-0.03476343304 -0.09699654579 -0.0002935126261867589 -3.070529354684164e-06
-0.02944197692 -0.09699654579 -0.000285108274777608 1.619310979739019e-05
-0.02412051894 -0.09699654579 -0.0002756084339518876 3.466750726107619e-05
-0.01879905909 -0.09699654579 -0.00026822044222699797 5.381008313261243e-05
-0.01347760204 -0.09699654579 -0.0002586121716713487 7.433716518593058e-05
-0.00815614406 -0.09699654579 -0.00027728284943655317 9.570557297066636e-05
-0.00283468538 -0.09699654579 -0.00031221257913120157 0.00011741994872998236
0.002486772602 -0.09699654579 -0.00034938735766338014 0.00013989252105572815
0.007808230817 -0.09699654579 -0.000387551675877542 0.00016247998676824756
0.0131296888 -0.09699654579 -0.0004241903110164685 0.00018454431954631782
0.01845114678 -0.09699654579 -0.00045884012620504855 0.00017336299095268944
0.02377260476 -0.09699654579 -0.0004908978008580809 0.00013733726637147326
0.02909406275 -0.09699654579 -0.0005252689348953888 9.921959351760206e-05
0.03441552073 -0.09699654579 -0.0005597549693306756 6.081137158075755e-05
0.03973697871 -0.09699654579 -0.0005942756001952222 2.4747988819646127e-05
0.04505843669 -0.09699654579 -0.0005914488640787161 -1.0734136710951942e-05
0.05037989467 -0.09699654579 -0.0005318374164657367 -4.597536523661127e-05
0.05570135266 -0.09699654579 -0.0004684784365381028 -8.177654977111913e-05
0.06102281436 -0.09699654579 -0.0004031757445137385 -0.0001192799708306876
0.06634426862 -0.09699654579 -0.00034417823667443 -0.00015396388002697465
0.0716657266 -0.09699654579 -0.00028457191883658116 -0.0001886960240345341
0.07698718458 -0.09699654579 -0.00023392742162472036 -0.00013785694465487096
0.08230864257 -0.09699654579 -0.00018652975113583103 -8.213757106227409e-05
0.08763010055 -0.09699654579 -0.00013817074185555248 -2.7792552782068042e-05
0.09295155853 -0.09699654579 -9.095493401690399e-05 2.5981040734655677e-05
0.09827301651 -0.09699654579 -4.358325353845871e-05 8.025822945117815e-05
0.1035944745 -0.09699654579 -2.814410704818236e-05 0.00013512246326531418
0.1089159325 -0.09699654579 -6.931111540848045e-05 0.00018945055227795945
0.1142373979 -0.09699654579 -0.0001072801309168468 0.00024192923469076145
0.1195588559 -0.09699654579 -0.00014505987248316884 0.00029288430780570246
0.1248803139 -0.09699654579 -0.00018228402145948735 0.0003438059843300501
0.1302017719 -0.09699654579 -0.00021949760689731455 0.00039609772806651266
0.1355232298 -0.09699654579 -0.0002671140419385079 0.00039341756899454795
0.1408446878 -0.09699654579 -0.0003162280815692249 0.0003575939273331021
0.1461661458 -0.09699654579 -0.0003638297666369641 0.00032184530185985625
0.1514876038 -0.09699654579 -0.00041074265280292366 0.0002862140917723852
0.1568090618 -0.09699654579 -0.0004622938415194974 0.00025072954292088684
0.1621305197 -0.09699654579 -0.0005082768691679663 0.00021832948456235694
0.1674519777 -0.09699654579 -0.0004985406539978395 0.00018252336396021955
0.1727734357 -0.09699654579 -0.00046871078073026684 0.00014421064288488338
0.1780948937 -0.09699654579 -0.0004373985367231604 0.00010466468556393213
0.1834163517 -0.09699654579 -0.0004073055524353105 6.56218307458631e-05
0.1887378097 -0.09699654579 -0.00038091623804452064 2.996967970951894e-05
0.1940592676 -0.09699654579 -0.00035283033927319975 -5.724297009230997e-06
0.1993807256 -0.09699654579 -0.0003071836633975883 1.9590632873102696e-05
0.2047021836 -0.09699654579 -0.00025937409513156624 6.199507913814019e-05
0.2100236416 -0.09699654579 -0.00021360195343131177 9.717512744691983e-05
0.2153450996 -0.09699654579 -0.0001697475626030355 0.0001318745742759275
0.2206665576 -0.09699654579 -0.00012643586164283712 0.00016665199617018852
0.2259880155 -0.09699654579 -8.116355228958971e-05 0.00020141764859556477
0.2313094735 -0.09699654579 -9.776459296270782e-05 0.00023760473099995697
0.2366309315 -0.09699654579 -0.00012781454428253478 0.0002738882968253831
0.2419523895 -0.09699654579 -0.00015684397928026578 0.00030990293305854685
0.2472738475 -0.09699654579 -0.00018621655785158278 0.0003461052607879429
0.2525953054 -0.09699654579 -0.00021217720503911128 0.000379682849448057
0.2579167783 -0.09699654579 -0.0002357939486312705 0.0004108737442129161
0.2632382214 -0.09699654579 -0.00025695498510910816 0.0004062818020891613
0.2685596943 -0.09699654579 -0.00027574125751468365 0.00039404390431335267
0.2738811374 -0.09699654579 -0.0002961395223513938 0.00038271839200785564
0.2792026103 -0.09699654579 -0.00031390278365779644 0.00037211404772996245
0.2845240533 -0.09699654579 -0.0003338744577302101 0.0003614374736782126
0.2898455262 -0.09699654579 -0.00035089925140686587 0.0003503728337047365
0.2951669693 -0.09699654579 -0.00034679368885440204 0.00035685042092212455
0.3004884422 -0.09699654579 -0.0003407005982391708 0.00036625535004383854
0.3058098853 -0.09699654579 -0.0003294740629398502 0.00037690824393565246
0.3111313581 -0.09699654579 -0.0003176392312194251 0.0003876860541904488
0.3164528012 -0.09699654579 -0.0003081628674731435 0.000396878181926525
0.3217742741 -0.09699654579 -0.00030090404348937037 0.0004049669589355552
0.3270957172 -0.09699654579 -0.0003188469729025345 0.0004100563638682566
0.3324171901 -0.09699654579 -0.0003358142653858536 0.00041477422790230886
0.3377386332 -0.09699654579 -0.000353718216793455 0.0004189221842315128
0.343060106 -0.09699654579 -0.00036916716889414866 0.0004225365825255844
0.3483815491 -0.09699654579 -0.00038382443740819913 0.00042648404587148687
0.353703022 -0.09699654579 -0.00039908835851485357 0.00041574853908119664
0.3590244651 -0.09699654579 -0.00040469353683514315 0.0003782724453930524
0.364345938 -0.09699654579 -0.0004099964305862758 0.0003436944298145885
0.369667381 -0.09699654579 -0.00041400716647878365 0.0003093579785751255
0.3749888539 -0.09699654579 -0.00042125951156896666 0.0002751567912550565
0.380310297 -0.09699654579 -0.00042781541129386237 0.00024320082754658855
0.3856317699 -0.09699654579 -0.0004017810837929986 0.0002215739947020988
0.390953213 -0.09699654579 -0.0003683435570938448 0.00020248351178382286
0.3962746859 -0.09699654579 -0.0003326453556119111 0.000182103171983978
0.4015961289 -0.09699654579 -0.0002992766489550225 0.00016325306963383868
0.4069176018 -0.09699654579 -0.0002713574508400321 0.00014483399970338648
0.4122390449 -0.09699654579 -0.00024032520756122708 0.00014107502361534067
0.4175605178 -0.09699654579 -0.00020791533773845252 0.00015651460311818637
0.4228819609 -0.09699654579 -0.0001809970441419577 0.0001692589573657765
0.4282034338 -0.09699654579 -0.00015734388872332307 0.0001819065947650639
0.4335248768 -0.09699654579 -0.00012951527932393293 0.00019431374021258767
0.4388463497 -0.09699654579 -0.00011185997275948589 0.0002096350606305471
0.4441677928 -0.09699654579 -0.00011097237762328512 0.00022646238003445676
0.4494892657 -0.09699654579 -0.00011205392232212267 0.00024305504300054504
0.4548107088 -0.09699654579 -0.00011623088367379769 0.0002592214630490618
0.4601321816 -0.09699654579 -0.00011716902945458611 0.00027504828354397114
0.4654536247 -0.09699654579 -0.0001232487444651687 0.0002850098180310154
0.4707750976 -0.09699654579 -0.00013515312557677023 0.0002879846247066854
0.4760965407 -0.09699654579 -0.00014822320994824746 0.0002910707324061863
0.4814180136 -0.09699654579 -0.0001600511163835078 0.0002944842825199309
0.4867394567 -0.09699654579 -0.00016983541141723095 0.0002977489811421811
0.4920609295 -0.09699654579 -0.00017437294728157648 0.00029476005371218924
0.4973823726 -0.09699654579 -0.0001780639864363607 0.00028994225796472983
0.5027038455 -0.09699654579 -0.00018206856904924722 0.0002863078020623015
0.5080252886 -0.09699654579 -0.0001833766944182755 0.00028214757811747507
0.5133467317 -0.09699654579 -0.0001805858267696927 0.00027929624678912104
0.5186682343 -0.09699654579 -0.0001741387163945483 0.00027804012212367214
0.5239896774 -0.09699654579 -0.00016705180719834908 0.0002783960696566434
0.5293111205 -0.09699654579 -0.00016218161231266217 0.0002778986571364861
0.5346325636 -0.09699654579 -0.00015246771895775636 0.0002803021337464198
0.5399540663 -0.09699654579 -0.00014478137409014837 0.0002863680333226663
0.5452755094 -0.09699654579 -0.00013712540715598925 0.0002928213539510918
0.5505969524 -0.09699654579 -0.0001286323599083291 0.000299011482792159
0.5559183955 -0.09699654579 -0.00012030149015179786 0.00031108710163022565
0.5612398982 -0.09699654579 -0.00011440794105142106 0.0003245519215576592
0.5665613413 -0.09699654579 -0.00010883369166123269 0.00033804125104744783
0.5718827844 -0.09699654579 -0.00010494739828529366 0.0003538119628048001
0.5772042274 -0.09699654579 -0.00010330847990166597 0.0003711363973718967
0.5825257301 -0.09699654579 -0.00010468363100187739 0.00038820348658298907
0.5878471732 -0.09699654579 -0.00010737480618254129 0.00040597671890924393
0.5931686163 -0.09699654579 -0.00011539890017529682 0.0004210877978870236
0.5984900594 -0.09699654579 -0.00012119886516519185 0.000436992042165056
0.6038115621 -0.09699654579 -0.0001288106388201919 0.0004500952838109998
0.6091330051 -0.09699654579 -0.00013973844578357315 0.0004617264036194769
0.6144544482 -0.09699654579 -0.0001448164388566884 0.00047273496485682436
0.6197758913 -0.09699654579 -0.00016077226490912396 0.0004803196636948307
0.625097394 -0.09699654579 -0.0001708279838757496 0.0004883795709021376
0.6304188371 -0.09699654579 -0.000175207184865186 0.0004971484169803545
0.6357402802 -0.09699654579 -0.00018495116307414903 0.0005051273665341006
0.6410617828 -0.09699654579 -0.0001896302696965624 0.0005126871648089389
0.6463832259 -0.09699654579 -0.00019545626914373504 0.0005234081202201722
0.651704669 -0.09699654579 -0.00019948879488827258 0.0005359377522638757
0.6570261121 -0.09699654579 -0.00020884920900286375 0.0005531226580536705
0.6623476148 -0.09699654579 -0.0002176862550267902 0.0005735581125388126
0.6676690578 -0.09699654579 -0.00022402828581692493 0.0006002666770236567
0.6729905009 -0.09699654579 -0.00024109638442420254 0.0006321219238836343
0.678311944 -0.09699654579 -0.0002578205430877115 0.0006698564655318641
0.6836334467 -0.09699654579 -0.0002759008881493726 0.0007116573258988684
0.6889548898 -0.09699654579 -0.00030545590972357945 0.000759841839503493
0.6942763329 -0.09699654579 -0.00034134381523995836 0.0008187082899947113
0.6995977759 -0.09699654579 -0.0003881541803029545 0.0008848803933972225
0.7049192786 -0.09699654579 -0.00045065869880892007 0.0009539176244759641
0.7102407217 -0.09699654579 -0.0005243042991413892 0.0010287013442614459
0.7155621648 -0.09699654579 -0.0006271214937130574 0.0011074909632166634
0.7208836079 -0.09699654579 -0.0007497472828620606 0.001192332598448028
0.7262051105 -0.09699654579 -0.0008923001998521428 0.0012752073868369316
0.7315265536 -0.09699654579 -0.0010603920475340785 0.001354575552293007
0.7368479967 -0.09699654579 -0.0012566953673508298 0.0014305148198218024
0.7421694398 -0.09699654579 -0.0014906939812419071 0.0014938045847899216
0.7474909425 -0.09699654579 -0.0017549031044279833 0.0015493253684302527
0.7528123856 -0.09699654579 -0.0020683480073879147 0.0015769149677864428
0.7581338286 -0.09699654579 -0.0024067367967059846 0.0015702953405397925
-0.3008363545 -0.09367749095 0.00024330548150623658 0.00022662956209693123
-0.2955148816 -0.09367749095 0.00032269209155946587 0.00028454934121029606
-0.2901934385 -0.09367749095 0.00046835437478830866 0.0003290282083957403
-0.2848719656 -0.09367749095 0.00040978956757104553 0.0003206650258070484
-0.2795505226 -0.09367749095 0.0003159896617239483 0.00028684339725988753
-0.2742290497 -0.09367749095 0.0002426830188665358 0.00018903161194329146