VARIABLES = X,Y,phix,phiy
ZONE I=200,J=200,F=POINT 
-0.3008363545 -0.1003156006 -0.0003647928508333945 0.0007383238414292328
-0.2955148816 -0.1003156006 -0.0003433726491812259 0.0007153459486675278
-0.2901934385 -0.1003156006 -0.0002934426582468403 0.0006819181486246776
-0.2848719656 -0.1003156006 -0.00023929108943120857 0.0006495066345790289
-0.2795505226 -0.1003156006 -0.00016878791231201046 0.0006340431617685537
-0.2742290497 -0.1003156006 -6.89648740553882e-05 0.0006365995549012603
-0.2689076066 -0.1003156006 1.8443112289556674e-05 0.0006447682967374301
-0.2635861337 -0.1003156006 5.120953944291896e-05 0.0005973983121536709
-0.2582646906 -0.1003156006 7.584932269270231e-05 0.0005085897809326391
-0.2529432178 -0.1003156006 9.566449852586436e-05 0.00042029876391243444
-0.2476217598 -0.1003156006 9.470153517939268e-05 0.00037475650057309303
-0.2423003018 -0.1003156006 3.318813437628611e-05 0.00036863570777436415
-0.2369788438 -0.1003156006 -2.569989815581559e-05 0.00030954444027632384
-0.2316573858 -0.1003156006 -0.00010932200381318953 0.0002037754690523004
-0.2263359278 -0.1003156006 -0.00016352628329100127 7.050672400080247e-05
-0.2210144699 -0.1003156006 -3.902403719052178e-05 -1.5585748328583477e-05
-0.2156930119 -0.1003156006 9.733993919367952e-05 -0.00011096548783870737
-0.2103715539 -0.1003156006 0.00029777970428249606 -0.00020586009877293927
-0.2050500959 -0.1003156006 0.00041667705150908997 -0.00023323440136625872
-0.1997286379 -0.1003156006 0.0005521839650922731 -0.0002873971151134593
-0.19440718 -0.1003156006 0.0007043664974007926 -0.0003087214612761529
-0.189085722 -0.1003156006 0.0007850285536220395 -0.00024742798933829335
-0.183764264 -0.1003156006 0.0008358074938695285 -0.00013689994013031743
-0.178442806 -0.1003156006 0.0008910971624545358 -1.3038054213180541e-05
-0.173121348 -0.1003156006 0.0008660821984845245 0.00010921384174923685
-0.16779989 -0.1003156006 0.0008311026471764073 0.00021997901938840245
-0.1624784321 -0.1003156006 0.0007873011025174305 0.00032973435704285154
-0.1571569741 -0.1003156006 0.0007431826211505444 0.000402292795293473
-0.1518355161 -0.1003156006 0.0006886783309086299 0.00045112224676476334
-0.1465140581 -0.1003156006 0.000627121951159777 0.000499395670126913
-0.1411926001 -0.1003156006 0.0005729390388815084 0.0005381607133685219
-0.1358711421 -0.1003156006 0.0005357281548943515 0.0005505354549279227
-0.1305496842 -0.1003156006 0.0004954841597234527 0.0005632119901825021
-0.1252282262 -0.1003156006 0.0004466655360706525 0.000575093816695738
-0.1199067682 -0.1003156006 0.0003933497875658844 0.0005838327898459555
-0.1145853102 -0.1003156006 0.0003415066769891852 0.0005897798615180563
-0.1092638522 -0.1003156006 0.00028334752668086297 0.0005923495113861341
-0.1039423943 -0.1003156006 0.00023205347438725956 0.0005953482388901116
-0.09862093627 -0.1003156006 0.00021503233417939573 0.0005583006020175758
-0.09329947084 -0.1003156006 0.0002026781023716389 0.0005155598296805903
-0.08797801286 -0.1003156006 0.00019153684201458183 0.00047272530292233377
-0.08265655488 -0.1003156006 0.0001816776918557211 0.0004310983459640192
-0.0773350969 -0.1003156006 0.0002082572466940081 0.0003956392498894501
-0.07201363891 -0.1003156006 0.00023226483789163028 0.0003603967880453291
-0.06669218093 -0.1003156006 0.00025889241001038376 0.0003250952443616137
-0.06137072667 -0.1003156006 0.0002868010499781608 0.0002897185888942617
-0.05604926869 -0.1003156006 0.0002927659327931709 0.00028205248262406894
-0.05072781071 -0.1003156006 0.00029503277316947314 0.0002792845655537708
-0.045406349 -0.1003156006 0.0002983633626329206 0.00027534867089453504
-0.04008489102 -0.1003156006 0.00030044542151483447 0.0002740103722043551
-0.03476343304 -0.1003156006 0.0002993838152031104 0.0002727845259725443
-0.02944197692 -0.1003156006 0.0002937860327810596 0.0002698429163927023
-0.02412051894 -0.1003156006 0.00028751144354530466 0.00026630512404819163
-0.01879905909 -0.1003156006 0.00028309285610070013 0.00026183986662822305
-0.01347760204 -0.1003156006 0.0002783939469254583 0.00025838402893365415
-0.00815614406 -0.1003156006 0.0002847417393369255 0.00024815125004841535
-0.00283468538 -0.1003156006 0.0003022526048935738 0.00023245813485129005
0.002486772602 -0.1003156006 0.0003211541385785042 0.00021527757209011318
0.007808230817 -0.1003156006 0.0003402930735012317 0.00019814976304192267
0.0131296888 -0.1003156006 0.00035709585709823877 0.000182181479382214
0.01845114678 -0.1003156006 0.0003820497290585359 0.00016825782798499732
0.02377260476 -0.1003156006 0.00041213993764844376 0.00015511550394184935
0.02909406275 -0.1003156006 0.00044309278877399536 0.00014188184315189615
0.03441552073 -0.1003156006 0.0004730184446573108 0.00012854935175013544
0.03973697871 -0.1003156006 0.0005044665157646634 0.00011536022741064393
0.04505843669 -0.1003156006 0.0005275048674783868 0.00010591758945461935
0.05037989467 -0.1003156006 0.0005456862250756608 0.0001020139131525922
0.05570135266 -0.1003156006 0.0005632215252146174 9.872286209665987e-05
0.06102281436 -0.1003156006 0.0005797647973299942 9.532489674475943e-05
0.06634426862 -0.1003156006 0.000595939013973907 9.165237681350102e-05
0.0716657266 -0.1003156006 0.0006133223631255172 8.77332158936516e-05
0.07698718458 -0.1003156006 0.0006332317468074483 7.532333865860312e-05
0.08230864257 -0.1003156006 0.000654948207607169 6.264160907160253e-05
0.08763010055 -0.1003156006 0.0006759588155439496 4.92779581875081e-05
0.09295155853 -0.1003156006 0.0006964581011642161 3.639208060063489e-05
0.09827301651 -0.1003156006 0.0007178126918853389 2.3994431007477163e-05
0.1035944745 -0.1003156006 0.0007417676770609739 2.245121189580697e-05
0.1089159325 -0.1003156006 0.0007670897089542632 4.281212864870254e-05
0.1142373979 -0.1003156006 0.0007932700983753338 6.312543007212676e-05
0.1195588559 -0.1003156006 0.0008195599928253793 8.085553622551193e-05
0.1248803139 -0.1003156006 0.0008480092037944683 9.953540196564464e-05
0.1302017719 -0.1003156006 0.0008740183800482445 0.00011885195013173524
0.1355232298 -0.1003156006 0.0008690898003559824 0.00013614550650698954
0.1408446878 -0.1003156006 0.0008426342338541172 0.00015036734611524632
0.1461661458 -0.1003156006 0.0008169073759427334 0.00016177793687820495
0.1514876038 -0.1003156006 0.0007925385960003046 0.00017328172789212947
0.1568090618 -0.1003156006 0.0007673953752178112 0.0001846238143688072
0.1621305197 -0.1003156006 0.0007430460209368151 0.00019629006137897827
0.1674519777 -0.1003156006 0.0007185558697086764 0.00017469359020671118
0.1727734357 -0.1003156006 0.0006967924950569208 0.00013767815933072737
0.1780948937 -0.1003156006 0.0006728274131571336 0.00010083093531046487
0.1834163517 -0.1003156006 0.0006502607295342996 6.385378834587788e-05
0.1887378097 -0.1003156006 0.0006289578658747843 2.9135532808794326e-05
0.1940592676 -0.1003156006 0.0006057854290522548 -1.6101290845674571e-06
0.1993807256 -0.1003156006 0.0006217951381515291 -2.2322799734513192e-05
0.2047021836 -0.1003156006 0.0006489903974289753 -4.0039174543030576e-05
0.2100236416 -0.1003156006 0.0006737558646015235 -5.766604700454789e-05
0.2153450996 -0.1003156006 0.0006996325486200667 -7.25390654244654e-05
0.2206665576 -0.1003156006 0.0007223869284367242 -8.853588300960222e-05
0.2259880155 -0.1003156006 0.0007464738924394548 -0.0001045380968823025
0.2313094735 -0.1003156006 0.0007663246115131537 -0.00010166949371756681
0.2366309315 -0.1003156006 0.0007824670956356359 -9.57842061948158e-05
0.2419523895 -0.1003156006 0.000800404394036522 -9.123353995255234e-05
0.2472738475 -0.1003156006 0.0008180980997432581 -8.706136050732667e-05
0.2525953054 -0.1003156006 0.0008302916856371709 -8.441567503412446e-05
0.2579167783 -0.1003156006 0.0008404084493151823 -8.180991332603401e-05
0.2632382214 -0.1003156006 0.0008381640204054179 -7.115844874213115e-05
0.2685596943 -0.1003156006 0.0008331702386718385 -5.732514025842774e-05
0.2738811374 -0.1003156006 0.0008287937974001652 -4.21168369083936e-05
0.2792026103 -0.1003156006 0.0008254537973078935 -2.7990723171370258e-05
0.2845240533 -0.1003156006 0.000818245573045319 -1.7373966962098636e-05
0.2898455262 -0.1003156006 0.0008105437191315898 -7.044444024155439e-06
0.2951669693 -0.1003156006 0.0007785725142814146 1.1996415815753254e-05
0.3004884422 -0.1003156006 0.0007489560273439759 3.163260867457787e-05
0.3058098853 -0.1003156006 0.0007148355251755564 4.7859239389743804e-05
0.3111313581 -0.1003156006 0.0006846533644187112 6.430877718200738e-05
0.3164528012 -0.1003156006 0.00065116807235362 8.044965688214121e-05
0.3217742741 -0.1003156006 0.0006169146163639292 9.617958242367205e-05
0.3270957172 -0.1003156006 0.0005715524861942157 8.622498736292262e-05
0.3324171901 -0.1003156006 0.0005217583478858194 7.636668211126396e-05
0.3377386332 -0.1003156006 0.0004763761053450814 6.676404599374936e-05
0.343060106 -0.1003156006 0.00042827608508987477 5.676056473272802e-05
0.3483815491 -0.1003156006 0.0003823263321321453 4.781762571091906e-05
0.353703022 -0.1003156006 0.0003424335166212011 3.459584673599021e-05
0.3590244651 -0.1003156006 0.000321224347724099 1.0751815232916753e-05
0.364345938 -0.1003156006 0.0002950294573812974 -1.3059700834014798e-05
0.369667381 -0.1003156006 0.0002729624552765594 -3.377736534338119e-05
0.3749888539 -0.1003156006 0.00025031733825503423 -5.5650952391383664e-05
0.380310297 -0.1003156006 0.00022526046500385074 -7.793142797774368e-05
0.3856317699 -0.1003156006 0.00020848122979236675 -7.943343928528265e-05
0.390953213 -0.1003156006 0.0001939766410721752 -7.67821087208281e-05
0.3962746859 -0.1003156006 0.00017551524257127332 -7.484831031095167e-05
0.4015961289 -0.1003156006 0.00016139939512403666 -7.270816086027826e-05
0.4069176018 -0.1003156006 0.0001513832048406574 -7.003763435176875e-05
0.4122390449 -0.1003156006 0.00013099293996814365 -6.60314823807994e-05
0.4175605178 -0.1003156006 9.269110058460302e-05 -5.749445295586987e-05
0.4228819609 -0.1003156006 5.2023230101100994e-05 -4.760561492326213e-05
0.4282034338 -0.1003156006 1.2192642267722556e-05 -3.813723142351177e-05
0.4335248768 -0.1003156006 -2.326257325193617e-05 -3.1394029051675444e-05
0.4388463497 -0.1003156006 -6.515442154070656e-05 -3.1211003880056544e-05
0.4441677928 -0.1003156006 -0.00011739236325486052 -4.8314751268095977e-05
0.4494892657 -0.1003156006 -0.0001705068670186366 -6.541901272448744e-05
0.4548107088 -0.1003156006 -0.000218541885246214 -8.153966342346714e-05
0.4601321816 -0.1003156006 -0.00026707455655183084 -9.822397392938196e-05
0.4654536247 -0.1003156006 -0.00031205689202830995 -0.000122383915458314
0.4707750976 -0.1003156006 -0.00034120509126029036 -0.00015785725479347575
0.4760965407 -0.1003156006 -0.00037030874629178766 -0.00019078799610435507
0.4814180136 -0.1003156006 -0.000397587016612536 -0.0002236033921158509
0.4867394567 -0.1003156006 -0.0004265127487159744 -0.00025676473116531404
0.4920609295 -0.1003156006 -0.000439946509649816 -0.00028143417598990847
0.4973823726 -0.1003156006 -0.00044999005125621693 -0.0003027990118644034
0.5027038455 -0.1003156006 -0.00045569273478080673 -0.00032399381397144484
0.5080252886 -0.1003156006 -0.0004632914815599502 -0.0003453579057688364
0.5133467317 -0.1003156006 -0.0004739500911894971 -0.0003599104735913894
0.5186682343 -0.1003156006 -0.0004921237994679479 -0.00036318992138502376
0.5239896774 -0.1003156006 -0.0005052124117746172 -0.00036639947706582754
0.5293111205 -0.1003156006 -0.0005220956773939426 -0.0003705569455801222
0.5346325636 -0.1003156006 -0.0005471841582627192 -0.0003758140650385723
0.5399540663 -0.1003156006 -0.0005860681095164421 -0.00037897671719422924
0.5452755094 -0.1003156006 -0.0006221474536317013 -0.00038083784950843097
0.5505969524 -0.1003156006 -0.0006588727452662422 -0.00038473950019806216
0.5559183955 -0.1003156006 -0.0006995807969730447 -0.00039693901906151974
0.5612398982 -0.1003156006 -0.0007454428636689899 -0.000410023674254243
0.5665613413 -0.1003156006 -0.0007912253114277289 -0.0004234443308373254
0.5718827844 -0.1003156006 -0.0008364060581098062 -0.0004417456603436584
0.5772042274 -0.1003156006 -0.0008826687747515167 -0.0004668549124458919
0.5825257301 -0.1003156006 -0.0009322505794638448 -0.0004920767347949363
0.5878471732 -0.1003156006 -0.0009769678778986837 -0.0005183746887222905
0.5931686163 -0.1003156006 -0.0010190028093255948 -0.0005477177866585696
0.5984900594 -0.1003156006 -0.0010642527477242839 -0.0005768875990748592
0.6038115621 -0.1003156006 -0.001104117381015711 -0.0006044964283010894
0.6091330051 -0.1003156006 -0.0011443829601057828 -0.000631479733979836
0.6144544482 -0.1003156006 -0.001181363677750523 -0.0006576321291131424
0.6197758913 -0.1003156006 -0.0012167716505557726 -0.00068231852365771
0.625097394 -0.1003156006 -0.0012546341267395216 -0.0007053925626487607
0.6304188371 -0.1003156006 -0.0012940258985372694 -0.000723864446221939
0.6357402802 -0.1003156006 -0.0013332120139073378 -0.000740843280257464
0.6410617828 -0.1003156006 -0.0013795959398030678 -0.0007553150773790171
0.6463832259 -0.1003156006 -0.0014231482518148098 -0.0007651992515551464
0.651704669 -0.1003156006 -0.001471963327213509 -0.0007733106660742119
0.6570261121 -0.1003156006 -0.0015246628160815005 -0.0007788205208800904
0.6623476148 -0.1003156006 -0.001587210912073491 -0.0007819263580711108
0.6676690578 -0.1003156006 -0.0016509015826995147 -0.000782280572762764
0.6729905009 -0.1003156006 -0.0017260535838125842 -0.0007807277948275197
0.678311944 -0.1003156006 -0.0018033160395178034 -0.0007796985505680206
0.6836334467 -0.1003156006 -0.0018867237593396516 -0.0007764679956680993
0.6889548898 -0.1003156006 -0.0019841297004173416 -0.0007699381044426555
0.6942763329 -0.1003156006 -0.002088119773814731 -0.0007636312696916401
0.6995977759 -0.1003156006 -0.0022020438277318404 -0.0007577952927498279
0.7049192786 -0.1003156006 -0.002321533708339271 -0.0007511396655318655
0.7102407217 -0.1003156006 -0.0024621310435978413 -0.0007478052681928814
0.7155621648 -0.1003156006 -0.00261451262076078 -0.0007456591207041747
0.7208836079 -0.1003156006 -0.002781236490809314 -0.0007479171141776755
0.7262051105 -0.1003156006 -0.0029626583646373654 -0.0007529795694103475
0.7315265536 -0.1003156006 -0.0031652854547851114 -0.0007631102216201244
0.7368479967 -0.1003156006 -0.0033952021064312314 -0.0007829663159104278
0.7421694398 -0.1003156006 -0.003646393857229738 -0.0008110439981648258
0.7474909425 -0.1003156006 -0.003907567626344173 -0.000856534220736118
0.7528123856 -0.1003156006 -0.004208106226443927 -0.0009231600324161693
0.7581338286 -0.1003156006 -0.004534108749527697 -0.0010124631306476718
-0.3008363545 -0.09699654579 -0.00038358287028128995 0.0007089862042119503
-0.2955148816 -0.09699654579 -0.00037858373309998614 0.0006892721229465246
-0.2901934385 -0.09699654579 -0.00034111153998601885 0.000646596761108642
-0.2848719656 -0.09699654579 -0.0002816500668563598 0.0006198215614295799
-0.2795505226 -0.09699654579 -0.00022435213386286034 0.0006009751890140374
-0.2742290497 -0.09699654579 -0.00014760395457557693 0.0005959679608688381
-0.2689076066 -0.09699654579 -5.3814413155355085e-05 0.0006102427788519852
-0.2635861337 -0.09699654579 2.3462876969618235e-05 0.0005928698502725969
-0.2582646906 -0.09699654579 3.0089517076823093e-05 0.0005048958768566328
-0.2529432178 -0.09699654579 4.428941109427309e-05 0.00044529115021902093
-0.2476217598 -0.09699654579 1.376310348980337e-05 0.00043804323289361487
-0.2423003018 -0.09699654579 -3.7340803678046555e-05 0.00041522196528087277
-0.2369788438 -0.09699654579 -0.00011446821276673846 0.00033447417726920016
-0.2316573858 -0.09699654579 -0.00020279001189447401 0.0002048942320898845
-0.2263359278 -0.09699654579 -0.0003448525212096065 2.6016124649427407e-05
-0.2210144699 -0.09699654579 -0.00025389425363818023 -7.709866542770457e-05
-0.2156930119 -0.09699654579 -5.545358996156598e-05 -0.00017239322170869477
-0.2103715539 -0.09699654579 0.00019882751408568401 -0.0003191844137609957
-0.2050500959 -0.09699654579 0.0003793586170051942 -0.00039497149995908155
-0.1997286379 -0.09699654579 0.0005327479805616992 -0.00041482739880321245
-0.19440718 -0.09699654579 0.0007039085596051042 -0.0004054413294840934
-0.189085722 -0.09699654579 0.0007980125337028876 -0.0002918829271539044
-0.183764264 -0.09699654579 0.0008506173811554784 -0.0001537837064454657
-0.178442806 -0.09699654579 0.0008854379600071003 6.814807588611833e-06
-0.173121348 -0.09699654579 0.0008654093743161353 0.00013313347304741806
-0.16779989 -0.09699654579 0.0008190750840862709 0.00024294715544908433
-0.1624784321 -0.09699654579 0.0007760349323610418 0.0003591715928565603
-0.1571569741 -0.09699654579 0.0007207522859282798 0.0004477085983514787
-0.1518355161 -0.09699654579 0.0006650077522875776 0.0004952314886925454
-0.1465140581 -0.09699654579 0.0006045200288825988 0.000533058582553341
-0.1411926001 -0.09699654579 0.000548900811708847 0.0005645758419911002
-0.1358711421 -0.09699654579 0.0004987542043783318 0.0005765731990431335
-0.1305496842 -0.09699654579 0.0004416452206798301 0.0005883851228941086
-0.1252282262 -0.09699654579 0.0003872531052676959 0.00060206460395401
-0.1199067682 -0.09699654579 0.00032768814908792286 0.0006096291617780275
-0.1145853102 -0.09699654579 0.00027400077119541205 0.0006157606779263713
-0.1092638522 -0.09699654579 0.000219107451386063 0.0006198794566480892
-0.1039423943 -0.09699654579 0.00016313225286075176 0.0006212287047850413
-0.09862093627 -0.09699654579 0.0001576326467101353 0.0005764501300769186
-0.09329947084 -0.09699654579 0.00015407100823518498 0.0005271361097866971
-0.08797801286 -0.09699654579 0.00015658178370197803 0.00047334849544493433
-0.08265655488 -0.09699654579 0.00015625599086110977 0.00042491903009908425
-0.0773350969 -0.09699654579 0.00018254692875527596 0.0003894677796503534
-0.07201363891 -0.09699654579 0.00021203880069889342 0.00035421934133428155
-0.06669218093 -0.09699654579 0.00024041210768384043 0.00031893197774256367
-0.06137072667 -0.09699654579 0.0002658634889746466 0.00028313398325505824
-0.05604926869 -0.09699654579 0.00027149435460526356 0.00027748294871750767
-0.05072781071 -0.09699654579 0.000270123618434559 0.00027760348288546823
-0.045406349 -0.09699654579 0.0002711444757050399 0.0002777338182413324
-0.04008489102 -0.09699654579 0.0002700277184915925 0.0002784808192686688
-0.03476343304 -0.09699654579 0.00026549246464958155 0.00027807411330507464
-0.02944197692 -0.09699654579 0.00025915793887125595 0.0002716389407175547
-0.02412051894 -0.09699654579 0.00025316818850056646 0.00026537607207275553
-0.01879905909 -0.09699654579 0.00024707671610273206 0.0002589449086887747
-0.01347760204 -0.09699654579 0.00024230310102597304 0.00025212594716606136
-0.00815614406 -0.09699654579 0.0002506958410949842 0.0002389465456093723
-0.00283468538 -0.09699654579 0.0002691752505411865 0.0002207513277468776
0.002486772602 -0.09699654579 0.0002904858491845089 0.00020209744587434733
0.007808230817 -0.09699654579 0.0003104299888255009 0.00018338951837366152
0.0131296888 -0.09699654579 0.00032979420064267886 0.0001649398003286115
0.01845114678 -0.09699654579 0.0003554949730598898 0.00015018273313829902
0.02377260476 -0.09699654579 0.00038583997030916154 0.0001370671687021301
0.02909406275 -0.09699654579 0.00041654007378956383 0.00012422051145798165
0.03441552073 -0.09699654579 0.0004458393635032612 0.00011130421252511745
0.03973697871 -0.09699654579 0.00047848433313167534 9.822621244633086e-05
0.04505843669 -0.09699654579 0.0005017818460109261 8.939232030421944e-05
0.05037989467 -0.09699654579 0.0005178489867676539 8.698676309233904e-05
0.05570135266 -0.09699654579 0.0005357410305512428 8.492381713782621e-05
0.06102281436 -0.09699654579 0.0005501838823852 8.338230711651184e-05
0.06634426862 -0.09699654579 0.0005682557646042954 8.08024295845575e-05
0.0716657266 -0.09699654579 0.0005838140500945517 7.818959964097494e-05
0.07698718458 -0.09699654579 0.0006062467969431536 6.375825704225656e-05
0.08230864257 -0.09699654579 0.0006282621654985869 4.896149942900589e-05
0.08763010055 -0.09699654579 0.0006492806279113983 3.4378369346544094e-05
0.09295155853 -0.09699654579 0.0006747757041990837 1.9955074744756718e-05
0.09827301651 -0.09699654579 0.0006942271580748931 5.4748956024270645e-06
0.1035944745 -0.09699654579 0.0007209363178553649 5.047994701546491e-06
0.1089159325 -0.09699654579 0.0007514900285815536 3.0375115754806002e-05
0.1142373979 -0.09699654579 0.0007826286157400593 5.3743492557559976e-05
0.1195588559 -0.09699654579 0.0008115720443056096 7.56678842416748e-05
0.1248803139 -0.09699654579 0.0008422030989461269 9.760347596735156e-05
0.1302017719 -0.09699654579 0.0008718699363548889 0.00012081946405167124
0.1355232298 -0.09699654579 0.0008671048241027088 0.00014290717051030345
0.1408446878 -0.09699654579 0.0008369720175157874 0.00016000157316580825
0.1461661458 -0.09699654579 0.0008072841847191045 0.00017708894068602853
0.1514876038 -0.09699654579 0.0007779834355788927 0.00019431853387602048
0.1568090618 -0.09699654579 0.0007444911216467564 0.0002116450292332766
0.1621305197 -0.09699654579 0.0007180603204648209 0.0002270545840039057
0.1674519777 -0.09699654579 0.0006919500244453674 0.00020027946081122968
0.1727734357 -0.09699654579 0.0006683429462523081 0.00015859527560458956
0.1780948937 -0.09699654579 0.0006408473529511211 0.00011600615232328712
0.1834163517 -0.09699654579 0.0006152946712588723 7.37745741178113e-05
0.1887378097 -0.09699654579 0.000592316913686221 3.3818811978524294e-05
0.1940592676 -0.09699654579 0.0005705899582879021 -6.474852828143044e-06
0.1993807256 -0.09699654579 0.0005945564397866665 -3.306928670699204e-05
0.2047021836 -0.09699654579 0.0006288101748435977 -5.631721611094594e-05
0.2100236416 -0.09699654579 0.0006637576771694966 -7.935816767268262e-05
0.2153450996 -0.09699654579 0.0006962536250759071 -0.0001024219472263411
0.2206665576 -0.09699654579 0.0007312907759200141 -0.00012546997283863724
0.2259880155 -0.09699654579 0.0007629970735307284 -0.00014849798635329143
0.2313094735 -0.09699654579 0.000787248184741885 -0.00014618871941135382
0.2366309315 -0.09699654579 0.0008042771325142153 -0.00013640258260831862
0.2419523895 -0.09699654579 0.0008223316368562108 -0.00012660709437696673
0.2472738475 -0.09699654579 0.000838024417761189 -0.00011675520324004033
0.2525953054 -0.09699654579 0.0008576532428902945 -0.00010876959788009508
0.2579167783 -0.09699654579 0.0008724411756852658 -0.00010269874141304427
0.2632382214 -0.09699654579 0.000880470873837852 -8.528250095104691e-05
0.2685596943 -0.09699654579 0.0008828419271988667 -6.547691866815703e-05
0.2738811374 -0.09699654579 0.0008868625166098057 -4.694220113449247e-05
0.2792026103 -0.09699654579 0.0008917987176326321 -3.0562503402157995e-05
0.2845240533 -0.09699654579 0.0008924768342822167 -1.3737195557417798e-05
0.2898455262 -0.09699654579 0.0008977304998519534 4.00962027002061e-06
0.2951669693 -0.09699654579 0.0008743747362825041 2.8868173058040404e-05
0.3004884422 -0.09699654579 0.0008519882710340761 5.240593684617186e-05
0.3058098853 -0.09699654579 0.0008165981145271276 7.447916176740578e-05
0.3111313581 -0.09699654579 0.0007843429658096996 9.65425926013681e-05
0.3164528012 -0.09699654579 0.0007529031500745595 0.00011702793140997854
0.3217742741 -0.09699654579 0.0007168450457318925 0.00013335183904137393
0.3270957172 -0.09699654579 0.0006693653035276214 0.00012031689273968349
0.3324171901 -0.09699654579 0.0006220329334247551 0.00010722251473184256
0.3377386332 -0.09699654579 0.0005766970458105537 9.481104533326314e-05
0.343060106 -0.09699654579 0.0005310665113516496 8.359230261290673e-05
0.3483815491 -0.09699654579 0.0004858971511758802 7.203916696318134e-05
0.353703022 -0.09699654579 0.0004476840913084653 5.468066700462421e-05
0.3590244651 -0.09699654579 0.00042617274165661833 2.7764635422178396e-05
0.364345938 -0.09699654579 0.0004053462635869265 3.123875214322075e-06
0.369667381 -0.09699654579 0.0003837641263203859 -2.165463281661966e-05
0.3749888539 -0.09699654579 0.0003616642601484934 -4.6427917352946354e-05
0.380310297 -0.09699654579 0.0003375715122121488 -6.981143553229439e-05
0.3856317699 -0.09699654579 0.00031895228817498854 -7.063900749266205e-05
0.390953213 -0.09699654579 0.0003075198209914455 -6.46762264966632e-05
0.3962746859 -0.09699654579 0.0002928773718543735 -5.82409910780728e-05
0.4015961289 -0.09699654579 0.0002801829941781043 -5.330042280793511e-05
0.4069176018 -0.09699654579 0.00026394376172798943 -5.0047235139862534e-05
0.4122390449 -0.09699654579 0.00023480389791279645 -4.2447624881960746e-05
0.4175605178 -0.09699654579 0.00018320210933018814 -2.9270552814150108e-05
0.4228819609 -0.09699654579 0.0001338161370005329 -1.9396368815948673e-05
0.4282034338 -0.09699654579 8.736210623613035e-05 -1.0465347654648976e-05
0.4335248768 -0.09699654579 3.913454661781287e-05 -1.1301603870180951e-06
0.4388463497 -0.09699654579 -1.7652173581962467e-05 -6.554875420341287e-08
0.4441677928 -0.09699654579 -8.302735515227718e-05 -1.8753915205808214e-05
0.4494892657 -0.09699654579 -0.00014332436996645616 -3.734349569071444e-05
0.4548107088 -0.09699654579 -0.00020240163630079694 -5.510830750920127e-05
0.4601321816 -0.09699654579 -0.00025796479655538736 -7.288876227241953e-05
0.4654536247 -0.09699654579 -0.0003035183010745075 -9.760002562322068e-05
0.4707750976 -0.09699654579 -0.00033292501329063484 -0.00013504984192081883
0.4760965407 -0.09699654579 -0.00036593577327520386 -0.00017422562632235275
0.4814180136 -0.09699654579 -0.00039635880028166367 -0.00021176559407638755
0.4867394567 -0.09699654579 -0.00042794154212435966 -0.0002470525831488116
0.4920609295 -0.09699654579 -0.00043729938728276287 -0.0002718655325881539
0.4973823726 -0.09699654579 -0.0004437896153685209 -0.0002942593312271884
0.5027038455 -0.09699654579 -0.00045251903560464697 -0.0003160963128591561
0.5080252886 -0.09699654579 -0.00045899795821624176 -0.0003380542255541656
0.5133467317 -0.09699654579 -0.0004725298900719914 -0.00034964717388232154
0.5186682343 -0.09699654579 -0.000489675177544423 -0.0003501865216913527
0.5239896774 -0.09699654579 -0.0005032946192367919 -0.000353599971146648
0.5293111205 -0.09699654579 -0.000521056162357948 -0.00035570136800375165
0.5346325636 -0.09699654579 -0.0005504651166173351 -0.00035537464368950376
0.5399540663 -0.09699654579 -0.0005891315214462383 -0.00035642603539624325
0.5452755094 -0.09699654579 -0.0006268214965447775 -0.000358529844475568
0.5505969524 -0.09699654579 -0.0006674488892788816 -0.0003596304605287877
0.5559183955 -0.09699654579 -0.000713802696875627 -0.0003688959447308139
0.5612398982 -0.09699654579 -0.000761289048042012 -0.0003817939209099082
0.5665613413 -0.09699654579 -0.0008065905316800267 -0.00039494120867259526
0.5718827844 -0.09699654579 -0.0008573313526422492 -0.0004127229964095943
0.5772042274 -0.09699654579 -0.000904838660581012 -0.00043828371186032614
0.5825257301 -0.09699654579 -0.0009531551955000826 -0.0004640099133046272
0.5878471732 -0.09699654579 -0.0010013383480916966 -0.0004916301607640466
0.5931686163 -0.09699654579 -0.001041409908141074 -0.0005212998044894886
0.5984900594 -0.09699654579 -0.0010888562932113485 -0.0005516965272688922
0.6038115621 -0.09699654579 -0.0011295265082971987 -0.0005798272776546534
0.6091330051 -0.09699654579 -0.001172241655129617 -0.0006072740895151811
0.6144544482 -0.09699654579 -0.0012058165600714785 -0.0006336753957345371
0.6197758913 -0.09699654579 -0.001240402389152923 -0.0006576365790144997
0.625097394 -0.09699654579 -0.0012761401606268498 -0.0006800607692416137
0.6304188371 -0.09699654579 -0.0013102794947705827 -0.00069930105519044
0.6357402802 -0.09699654579 -0.0013484934260726835 -0.0007150183424679427
0.6410617828 -0.09699654579 -0.0013924311181065447 -0.0007271488711130575
0.6463832259 -0.09699654579 -0.0014388213018773615 -0.0007356327246223007
0.651704669 -0.09699654579 -0.001485100896143609 -0.0007408119292031761
0.6570261121 -0.09699654579 -0.0015395824476690816 -0.0007436555420206863
0.6623476148 -0.09699654579 -0.0015971832241751267 -0.000744023398507242
0.6676690578 -0.09699654579 -0.0016594722210055246 -0.0007412296701763588
0.6729905009 -0.09699654579 -0.001732239038715087 -0.0007359977035436158
0.678311944 -0.09699654579 -0.0018084279865804734 -0.0007278444903861181
0.6836334467 -0.09699654579 -0.0018899644418957499 -0.0007195907448907448
0.6889548898 -0.09699654579 -0.0019853386324607076 -0.0007085676953458162
0.6942763329 -0.09699654579 -0.0020942747237140302 -0.00069649769854823
0.6995977759 -0.09699654579 -0.002205987201294003 -0.000682683663807722
0.7049192786 -0.09699654579 -0.0023301750453550746 -0.000670246226334874
0.7102407217 -0.09699654579 -0.0024696936819929216 -0.0006599897762106985
0.7155621648 -0.09699654579 -0.002624359161508463 -0.0006492043491683579
0.7208836079 -0.09699654579 -0.0027919412690868796 -0.0006378778887195091
0.7262051105 -0.09699654579 -0.0029778608117888346 -0.0006307364103609553
0.7315265536 -0.09699654579 -0.0031843274797058764 -0.0006290200663341984
0.7368479967 -0.09699654579 -0.003416056569405041 -0.0006317081705670303
0.7421694398 -0.09699654579 -0.003673750043569939 -0.0006482180569145096
0.7474909425 -0.09699654579 -0.003952586350541923 -0.0006735271802215863
0.7528123856 -0.09699654579 -0.004260629870928545 -0.000723101555208354
0.7581338286 -0.09699654579 -0.0045978560976156204 -0.0008008849032930145
-0.3008363545 -0.09367749095 -0.00040489781579033983 0.0006825774880339109
-0.2955148816 -0.09367749095 -0.00041073222632939416 0.0006635498726142377
-0.2901934385 -0.09367749095 -0.0003909587345119534 0.0006135370256211384
-0.2848719656 -0.09367749095 -0.0003510312467953173 0.0005795209127337422
-0.2795505226 -0.09367749095 -0.00029084820546783217 0.0005647049385767976
-0.2742290497 -0.09367749095 -0.00023307842822829216 0.0005514339232744097
-0.2689076066 -0.09367749095 -0.00015700086068303523 0.0005530098454714635
-0.2635861337 -0.09367749095 -5.3631048655813545e-05 0.000564984919096269
-0.2582646906 -0.09367749095 -1.713956117952271e-05 0.0005225071298321858