VARIABLES = X,Y,phix,phiy
ZONE I=200,J=200,F=POINT 
-0.3008363545 -0.1003156006 0.0006781196825004266 -0.000874025687743698
-0.2955148816 -0.1003156006 0.0007193566478290807 -0.0008599546290962458
-0.2901934385 -0.1003156006 0.0006728351080866286 -0.0008362906260654473
-0.2848719656 -0.1003156006 0.0006273410023519579 -0.0008105404066817394
-0.2795505226 -0.1003156006 0.0005561823953026501 -0.0007916896813250196
-0.2742290497 -0.1003156006 0.0004839227328810461 -0.0007797765062153952
-0.2689076066 -0.1003156006 0.0004308478863422345 -0.000767913610052483
-0.2635861337 -0.1003156006 0.0004522095038377208 -0.0007380337999445753
-0.2582646906 -0.1003156006 0.0004928999809805126 -0.0007358541305649372
-0.2529432178 -0.1003156006 0.0005522277089192583 -0.000738459079219615
-0.2476217598 -0.1003156006 0.0006237487970306105 -0.0007424682437683975
-0.2423003018 -0.1003156006 0.0006872137737412635 -0.0007333053234453832
-0.2369788438 -0.1003156006 0.0007142040750365327 -0.0007053246078607341
-0.2316573858 -0.1003156006 0.0007474954078556863 -0.0006471794951872288
-0.2263359278 -0.1003156006 0.0007558858007136078 -0.0005595092131198985
-0.2210144699 -0.1003156006 0.0006825890007841409 -0.0004210708480399156
-0.2156930119 -0.1003156006 0.0006020763995141864 -0.00024447876451426154
-0.2103715539 -0.1003156006 0.00047406332620332335 -3.418433329091119e-05
-0.2050500959 -0.1003156006 0.0004002181495252679 5.144459077350205e-05
-0.1997286379 -0.1003156006 0.0003163012072400416 8.217382024350113e-05
-0.19440718 -0.1003156006 0.00023051483804811197 7.766490234971594e-05
-0.189085722 -0.1003156006 0.00015069909649080982 -2.6606686541863025e-05
-0.183764264 -0.1003156006 6.856524337050665e-05 -0.0001354826705810259
-0.178442806 -0.1003156006 -1.766323786967103e-05 -0.00024306384379430812
-0.173121348 -0.1003156006 -4.666503079565254e-05 -0.00029605650771999094
-0.16779989 -0.1003156006 -5.554913044735638e-05 -0.0003319495993220047
-0.1624784321 -0.1003156006 -6.238953992431251e-05 -0.00036718917394435206
-0.1571569741 -0.1003156006 -6.0462616301326906e-05 -0.00040595539949563015
-0.1518355161 -0.1003156006 -4.6598008473868746e-05 -0.00044466216305951404
-0.1465140581 -0.1003156006 -3.0021007712395175e-05 -0.0004838532175957478
-0.1411926001 -0.1003156006 -9.48871093491039e-06 -0.0005157110534831425
-0.1358711421 -0.1003156006 2.2970357942719436e-05 -0.000531011494265254
-0.1305496842 -0.1003156006 5.422984780990947e-05 -0.0005461856127406314
-0.1252282262 -0.1003156006 9.003932175755762e-05 -0.0005573867650428571
-0.1199067682 -0.1003156006 0.00012212874177836157 -0.0005477792357070361
-0.1145853102 -0.1003156006 0.00015213113268559034 -0.0005315963001294166
-0.1092638522 -0.1003156006 0.0001815988855417891 -0.0005125801275578742
-0.1039423943 -0.1003156006 0.00020905013535337468 -0.0004936522564135319
-0.09862093627 -0.1003156006 0.00019844122810022864 -0.0004435014110695254
-0.09329947084 -0.1003156006 0.0001860863268714402 -0.0003928603877546903
-0.08797801286 -0.1003156006 0.00017160288343066147 -0.00034228149622160097
-0.08265655488 -0.1003156006 0.00016185045092215986 -0.000292352777187346
-0.0773350969 -0.1003156006 0.00014244262355503736 -0.00026124733720333414
-0.07201363891 -0.1003156006 0.00012358814349232053 -0.00023028028089077876
-0.06669218093 -0.1003156006 0.00010441468020855522 -0.00019936622620169217
-0.06137072667 -0.1003156006 9.009383191832026e-05 -0.00017154652994666824
-0.05604926869 -0.1003156006 9.732586742514753e-05 -0.00016631225027693473
-0.05072781071 -0.1003156006 0.00010824452493856861 -0.00016531639965549125
-0.045406349 -0.1003156006 0.00011961797454584045 -0.0001631367230007662
-0.04008489102 -0.1003156006 0.000131220196371974 -0.0001635434716612641
-0.03476343304 -0.1003156006 0.00013984824622253063 -0.00015621685383390572
-0.02944197692 -0.1003156006 0.00014616114795016713 -0.00013137971137591392
-0.02412051894 -0.1003156006 0.00015209300166423755 -0.0001049857661160247
-0.01879905909 -0.1003156006 0.0001576034206926667 -7.664451449115073e-05
-0.01347760204 -0.1003156006 0.00016254314704650685 -5.041835928339857e-05
-0.00815614406 -0.1003156006 0.00014294644163688605 -2.5652619435235565e-05
-0.00283468538 -0.1003156006 9.717633215663886e-05 -2.037736694194097e-06
0.002486772602 -0.1003156006 5.075751085103048e-05 2.315177499404668e-05
0.007808230817 -0.1003156006 5.870345016831369e-06 4.8418276014747756e-05
0.0131296888 -0.1003156006 -3.9788072336584326e-05 7.229161133898333e-05
0.01845114678 -0.1003156006 -7.676462505909187e-05 6.739625001687481e-05
0.02377260476 -0.1003156006 -0.00011169066426300269 3.9933249048072704e-05
0.02909406275 -0.1003156006 -0.0001457975183767334 9.394295087407443e-06
0.03441552073 -0.1003156006 -0.00017937084251510237 -2.1244013074354864e-05
0.03973697871 -0.1003156006 -0.00021435583398920352 -4.907704895047749e-05
0.04505843669 -0.1003156006 -0.00022814171757230066 -7.030527504031149e-05
0.05037989467 -0.1003156006 -0.0002074080260612603 -8.300243878714443e-05
0.05570135266 -0.1003156006 -0.00018922613975011767 -9.73341739513069e-05
0.06102281436 -0.1003156006 -0.00016890507647409839 -0.00011170152496099735
0.06634426862 -0.1003156006 -0.0001484271064267358 -0.0001249597270807907
0.0716657266 -0.1003156006 -0.00013010626072640103 -0.0001373846212917883
0.07698718458 -0.1003156006 -0.00010600353464372944 -0.0001127884543938203
0.08230864257 -0.1003156006 -8.195475693038755e-05 -8.53798644630356e-05
0.08763010055 -0.1003156006 -5.379056478527384e-05 -5.7024053422185913e-05
0.09295155853 -0.1003156006 -2.8209195205781607e-05 -2.9572353601540146e-05
0.09827301651 -0.1003156006 -2.7383153822421733e-06 -2.715975679206462e-06
0.1035944745 -0.1003156006 7.5731113503960525e-06 3.174510956296542e-05
0.1089159325 -0.1003156006 -1.0698881714556025e-05 8.085544742073236e-05
0.1142373979 -0.1003156006 -2.7028904862308094e-05 0.00012996343069437662
0.1195588559 -0.1003156006 -4.374979040502061e-05 0.00017482513773714353
0.1248803139 -0.1003156006 -5.836005546355367e-05 0.00022117061356654344
0.1302017719 -0.1003156006 -7.669097615285462e-05 0.0002685164306941442
0.1355232298 -0.1003156006 -0.00012734542726099046 0.00029271518404709964
0.1408446878 -0.1003156006 -0.0002010198115056909 0.0003003399774680026
0.1461661458 -0.1003156006 -0.00027063555939180363 0.0003095270531891633
0.1514876038 -0.1003156006 -0.00034051701458398526 0.0003186143173288312
0.1568090618 -0.1003156006 -0.00040871239451300564 0.0003278476702580551
0.1621305197 -0.1003156006 -0.0004778896964155488 0.0003369560374296595
0.1674519777 -0.1003156006 -0.0005151956714800086 0.00031522354889500714
0.1727734357 -0.1003156006 -0.0005390985125203324 0.0002802545045801416
0.1780948937 -0.1003156006 -0.0005614376411742901 0.0002450149168418803
0.1834163517 -0.1003156006 -0.0005875770520165753 0.00020997988568996592
0.1887378097 -0.1003156006 -0.000610230179086594 0.000177873931359345
0.1940592676 -0.1003156006 -0.0006300531925887053 0.00015204615095016554
0.1993807256 -0.1003156006 -0.0006149803251856338 0.00014863803217266228
0.2047021836 -0.1003156006 -0.0005882977563912193 0.0001530095892202564
0.2100236416 -0.1003156006 -0.0005607857150619576 0.00015674156039700485
0.2153450996 -0.1003156006 -0.0005423445112801943 0.0001647125292538915
0.2206665576 -0.1003156006 -0.0005196872197809992 0.00017167296150793
0.2259880155 -0.1003156006 -0.0004973459382303056 0.00017885012779798786
0.2313094735 -0.1003156006 -0.0004991537415200756 0.00021978608382134572
0.2366309315 -0.1003156006 -0.0005051668245820966 0.0002643208048950161
0.2419523895 -0.1003156006 -0.0005152474637455082 0.0003068219590753666
0.2472738475 -0.1003156006 -0.0005228199101254871 0.0003481762083729946
0.2525953054 -0.1003156006 -0.000523255824931085 0.00038525687457646355
0.2579167783 -0.1003156006 -0.0005254309479079268 0.00042286930946914045
0.2632382214 -0.1003156006 -0.0005540999024534103 0.0004531735497515969
0.2685596943 -0.1003156006 -0.0005929376845427259 0.00048100712291942115
0.2738811374 -0.1003156006 -0.0006270817981792352 0.0005088328723867574
0.2792026103 -0.1003156006 -0.0006640483680467136 0.0005366902116643215
0.2845240533 -0.1003156006 -0.0006998154218052643 0.000563405299887566
0.2898455262 -0.1003156006 -0.0007339727181807966 0.0005899751155775045
0.2951669693 -0.1003156006 -0.0007866142484890413 0.0006020005924679366
0.3004884422 -0.1003156006 -0.0008384167311023598 0.0006114533747562937
0.3058098853 -0.1003156006 -0.0008897679928552952 0.0006176664037489696
0.3111313581 -0.1003156006 -0.0009405071731069587 0.0006240247495312363
0.3164528012 -0.1003156006 -0.0009925573249020632 0.0006304116943002266
0.3217742741 -0.1003156006 -0.001042252438940559 0.0006362547153526115
0.3270957172 -0.1003156006 -0.0010940830034356613 0.0006047789561749821
0.3324171901 -0.1003156006 -0.0011446635035947594 0.0005731943210992327
0.3377386332 -0.1003156006 -0.0011956155879857555 0.0005417967408237123
0.343060106 -0.1003156006 -0.0012474209294755963 0.0005103007477831746
0.3483815491 -0.1003156006 -0.0012963718827586723 0.0004831821104198407
0.353703022 -0.1003156006 -0.0013282758920458266 0.00044564416128755284
0.3590244651 -0.1003156006 -0.0013197822896421655 0.00038587699398758034
0.364345938 -0.1003156006 -0.0013115987450674307 0.00032551141655504123
0.369667381 -0.1003156006 -0.001307400833292809 0.00027346708147326553
0.3749888539 -0.1003156006 -0.001300856425194917 0.00021928601425405729
0.380310297 -0.1003156006 -0.0012954559476389467 0.00016439854548508273
0.3856317699 -0.1003156006 -0.0012508483340959791 0.00015391017565179774
0.390953213 -0.1003156006 -0.0012046064775787751 0.00015717057089965078
0.3962746859 -0.1003156006 -0.001160282964405011 0.00016083253555145853
0.4015961289 -0.1003156006 -0.00111449257930646 0.00016368876609388754
0.4069176018 -0.1003156006 -0.0010753982006402717 0.000164534549606141
0.4122390449 -0.1003156006 -0.0010555132873797082 0.00018242871087605629
0.4175605178 -0.1003156006 -0.0010553328438242646 0.0002261378188185997
0.4228819609 -0.1003156006 -0.0010548903498532522 0.0002720013231353272
0.4282034338 -0.1003156006 -0.0010517860184289629 0.00031749992599765454
0.4335248768 -0.1003156006 -0.00105261610781538 0.00035694366958644936
0.4388463497 -0.1003156006 -0.001060719250268507 0.0003937719423690165
0.4441677928 -0.1003156006 -0.0011059617847939587 0.00042002656564995075
0.4494892657 -0.1003156006 -0.0011462395453564309 0.00044622962359118734
0.4548107088 -0.1003156006 -0.0011835493174358017 0.0004715054933257617
0.4601321816 -0.1003156006 -0.0012237965717338901 0.0004965306602386663
0.4654536247 -0.1003156006 -0.0012623870953308997 0.0005124040709357408
0.4707750976 -0.1003156006 -0.0012974840963909688 0.0005132462931426731
0.4760965407 -0.1003156006 -0.0013336038620854625 0.0005156345438727307
0.4814180136 -0.1003156006 -0.0013682489219341354 0.000517821478827665
0.4867394567 -0.1003156006 -0.0014031125613176967 0.000520260473864001
0.4920609295 -0.1003156006 -0.0014234340156740759 0.0005166710913002048
0.4973823726 -0.1003156006 -0.0014376738632114617 0.0005112628182856307
0.5027038455 -0.1003156006 -0.0014496242739914836 0.0005066980430425718
0.5080252886 -0.1003156006 -0.001466112241628867 0.0005021695798698826
0.5133467317 -0.1003156006 -0.0014734733680776954 0.0005012414433527555
0.5186682343 -0.1003156006 -0.001475558165852448 0.0005012016553457896
0.5239896774 -0.1003156006 -0.0014790522269405386 0.0005011230473228357
0.5293111205 -0.1003156006 -0.0014818849228837026 0.0005014264963775536
0.5346325636 -0.1003156006 -0.0014755532399724047 0.0005071276733022439
0.5399540663 -0.1003156006 -0.001470995062538848 0.0005151664401039014
0.5452755094 -0.1003156006 -0.0014622723456948704 0.0005227082326009715
0.5505969524 -0.1003156006 -0.0014540100977444746 0.0005313872527205484
0.5559183955 -0.1003156006 -0.0014400500536790504 0.0005496335133559489
0.5612398982 -0.1003156006 -0.0014226806941812502 0.0005681690885661005
0.5665613413 -0.1003156006 -0.0014062011796981198 0.0005870616322871666
0.5718827844 -0.1003156006 -0.001388234900783645 0.0006137130703151229
0.5772042274 -0.1003156006 -0.0013656241647973407 0.0006485729190263884
0.5825257301 -0.1003156006 -0.0013437639537891752 0.0006833839100611221
0.5878471732 -0.1003156006 -0.0013198098946498433 0.0007230424684767632
0.5931686163 -0.1003156006 -0.0012951463624579884 0.0007702085446885496
0.5984900594 -0.1003156006 -0.0012666049203739291 0.0008165913409122349
0.6038115621 -0.1003156006 -0.001243622472770082 0.0008718303608488535
0.6091330051 -0.1003156006 -0.0012192331047433387 0.0009285784248088008
0.6144544482 -0.1003156006 -0.0011950033617481569 0.000989929531774508
0.6197758913 -0.1003156006 -0.0011762404971606465 0.001053943128300246
0.625097394 -0.1003156006 -0.001157219512839739 0.00111925141795976
0.6304188371 -0.1003156006 -0.0011407665588490184 0.0011887840009426368
0.6357402802 -0.1003156006 -0.0011270612484970738 0.0012600959357992518
0.6410617828 -0.1003156006 -0.0011048174064945307 0.0013352457602450651
0.6463832259 -0.1003156006 -0.0010850684338826583 0.0014144376136082115
0.651704669 -0.1003156006 -0.0010678600303508927 0.0014964153719533545
0.6570261121 -0.1003156006 -0.001049692639015996 0.0015861649681310872
0.6623476148 -0.1003156006 -0.0010280552908745078 0.0016800499277670178
0.6676690578 -0.1003156006 -0.0010047167716609234 0.0017795185790166054
0.6729905009 -0.1003156006 -0.0009780933205243963 0.001886627311143644
0.678311944 -0.1003156006 -0.000952254425624173 0.001999332218168093
0.6836334467 -0.1003156006 -0.0009225998888849623 0.002119218149435665
0.6889548898 -0.1003156006 -0.0008875079563582837 0.002251610782397848
0.6942763329 -0.1003156006 -0.0008572052404429919 0.0023937074400793784
0.6995977759 -0.1003156006 -0.0008301102402180131 0.002544205941383725
0.7049192786 -0.1003156006 -0.000796919839687178 0.0027048231949028307
0.7102407217 -0.1003156006 -0.0007689926999269954 0.0028784067375968955
0.7155621648 -0.1003156006 -0.0007449505352228986 0.0030685946161908514
0.7208836079 -0.1003156006 -0.0007233408238244582 0.0032698975637323775
0.7262051105 -0.1003156006 -0.0007053923048451097 0.0034814098097902587
0.7315265536 -0.1003156006 -0.0006919665066153021 0.0037099101414423507
0.7368479967 -0.1003156006 -0.0006884520526494829 0.003954235667372235
0.7421694398 -0.1003156006 -0.0006822803280825592 0.004212664370158584
0.7474909425 -0.1003156006 -0.0006944682016875604 0.004476280590643161
0.7528123856 -0.1003156006 -0.0007061633915263391 0.004760552703910018
0.7581338286 -0.1003156006 -0.0007222213665091093 0.005061812969859258
-0.3008363545 -0.09699654579 0.0006880146483192509 -0.0008633099994497475
-0.2955148816 -0.09699654579 0.0007454152629996034 -0.0008555360325254052
-0.2901934385 -0.09699654579 0.0007617029343221932 -0.0008246572449547108
-0.2848719656 -0.09699654579 0.0007060527229050259 -0.0008019178019672385
-0.2795505226 -0.09699654579 0.0006176851374858672 -0.0007765743260836004
-0.2742290497 -0.09699654579 0.0005546647063174323 -0.0007509844739287686
-0.2689076066 -0.09699654579 0.000510486199334607 -0.0007454060442494608
-0.2635861337 -0.09699654579 0.00048309927905257165 -0.0007650996507396629
-0.2582646906 -0.09699654579 0.0005203484058672221 -0.0007741117260772905
-0.2529432178 -0.09699654579 0.0005727085953210349 -0.000785092782354013
-0.2476217598 -0.09699654579 0.0006732544551108371 -0.0007803504251313824
-0.2423003018 -0.09699654579 0.0007713354341911927 -0.0007626097707822446
-0.2369788438 -0.09699654579 0.0008066513313060237 -0.00072492143550364
-0.2316573858 -0.09699654579 0.0008361196116314915 -0.0006493720380872457
-0.2263359278 -0.09699654579 0.0009117028641405229 -0.0005130935974022897
-0.2210144699 -0.09699654579 0.000859166139834404 -0.00034807459198683317
-0.2156930119 -0.09699654579 0.000731489415733819 -0.0001419199449246189
-0.2103715539 -0.09699654579 0.0005661063438789177 3.246296991903652e-05
-0.2050500959 -0.09699654579 0.00045162083740675496 8.574068518047617e-05
-0.1997286379 -0.09699654579 0.0003650611959391308 7.928123392457034e-05
-0.19440718 -0.09699654579 0.00027690758100101326 5.83325030025496e-05
-0.189085722 -0.09699654579 0.00018323052610317079 -2.578865830860486e-05
-0.183764264 -0.09699654579 8.68668266693427e-05 -0.00013077931054830642
-0.178442806 -0.09699654579 -2.9106694023147876e-05 -0.0002490052242282275
-0.173121348 -0.09699654579 -6.860193262439071e-05 -0.0003098652036387184
-0.16779989 -0.09699654579 -7.415070887651665e-05 -0.0003467705103613781
-0.1624784321 -0.09699654579 -7.378804420656077e-05 -0.0003891770607569715
-0.1571569741 -0.09699654579 -5.3256888070514404e-05 -0.00044954341946798845
-0.1518355161 -0.09699654579 -3.4633773983278034e-05 -0.0004892007030421496
-0.1465140581 -0.09699654579 -2.3143638576417783e-05 -0.0005197270121653672
-0.1411926001 -0.09699654579 -6.1755087013057676e-06 -0.0005451554371372829
-0.1358711421 -0.09699654579 3.0373398567138036e-05 -0.0005557223250702536
-0.1305496842 -0.09699654579 7.133634978893794e-05 -0.0005641800441968895
-0.1252282262 -0.09699654579 0.00011497596745724534 -0.000571833630149123
-0.1199067682 -0.09699654579 0.00015215442572408212 -0.0005606786892952723
-0.1145853102 -0.09699654579 0.00018560777222455949 -0.0005415847153959583
-0.1092638522 -0.09699654579 0.00021608657886565576 -0.000521173500213423
-0.1039423943 -0.09699654579 0.0002452562255108654 -0.0004972300862223515
-0.09862093627 -0.09699654579 0.00023500709492475872 -0.00044217923195437277
-0.09329947084 -0.09699654579 0.0002238790482969895 -0.00038367866436029
-0.08797801286 -0.09699654579 0.00021602294697351172 -0.0003216298797159217
-0.08265655488 -0.09699654579 0.00020280657081791825 -0.00026453767303219884
-0.0773350969 -0.09699654579 0.00019031937260899202 -0.00023725571628459155
-0.07201363891 -0.09699654579 0.0001800326557964501 -0.00021252258895890314
-0.06669218093 -0.09699654579 0.0001720936584103379 -0.0001877983600241081
-0.06137072667 -0.09699654579 0.0001643706776913747 -0.00016392473678713176
-0.05604926869 -0.09699654579 0.00018137904794465542 -0.00016404362863141117
-0.05072781071 -0.09699654579 0.00019618557451887898 -0.0001670800562110422
-0.045406349 -0.09699654579 0.00021348785408843618 -0.00017005528604697981
-0.04008489102 -0.09699654579 0.00023222935051976908 -0.00017535050435014268
-0.03476343304 -0.09699654579 0.00024635431011494594 -0.00016989439694243958
-0.02944197692 -0.09699654579 0.0002529481300904141 -0.00013666551595273839
-0.02412051894 -0.09699654579 0.00026033560635347534 -0.00010434684254119476
-0.01879905909 -0.09699654579 0.0002670327064455504 -7.12206253859781e-05
-0.01347760204 -0.09699654579 0.00027428783991217747 -3.638907213314835e-05
-0.00815614406 -0.09699654579 0.00024933612954531676 -5.720088653328325e-06
-0.00283468538 -0.09699654579 0.00019831880698091726 2.1585963570851318e-05
0.002486772602 -0.09699654579 0.00014894821418354678 4.98879624552486e-05
0.007808230817 -0.09699654579 9.715063011564861e-05 7.84193008891475e-05
0.0131296888 -0.09699654579 4.437412233038182e-05 0.00010616222703512265
0.01845114678 -0.09699654579 3.537647681220955e-06 9.808153325471949e-05
0.02377260476 -0.09699654579 -3.452213062763671e-05 6.374953132049219e-05
0.02909406275 -0.09699654579 -7.333712176387002e-05 2.710150069253159e-05
0.03441552073 -0.09699654579 -0.00011174569286406595 -9.931076084645312e-06
0.03973697871 -0.09699654579 -0.00014903832529942392 -4.435686308286947e-05
0.04505843669 -0.09699654579 -0.0001630276379354966 -7.168288439010483e-05
0.05037989467 -0.09699654579 -0.00013845782656968483 -8.802267041424321e-05
0.05570135266 -0.09699654579 -0.00011517984870969584 -0.00010479722469940613
0.06102281436 -0.09699654579 -9.087268080127384e-05 -0.0001224529877009577
0.06634426862 -0.09699654579 -6.876501818109481e-05 -0.00013842608827857516
0.0716657266 -0.09699654579 -4.485241934543583e-05 -0.00015441652069818988
0.07698718458 -0.09699654579 -1.6879939076296487e-05 -0.00012658408500247295
0.08230864257 -0.09699654579 9.784376741582634e-06 -9.62580581270106e-05
0.08763010055 -0.09699654579 3.778290281257279e-05 -6.636371099549237e-05
0.09295155853 -0.09699654579 6.452376326047287e-05 -3.6604851128502974e-05
0.09827301651 -0.09699654579 9.278624321205449e-05 -6.7056231826097115e-06
0.1035944745 -0.09699654579 0.00010222666914955763 3.2822381499307614e-05
0.1089159325 -0.09699654579 8.04134963247958e-05 8.933298678048933e-05
0.1142373979 -0.09699654579 6.086592534626607e-05 0.0001434845256473787
0.1195588559 -0.09699654579 4.383125999439785e-05 0.00019568129319906178
0.1248803139 -0.09699654579 2.372263285895183e-05 0.00024782442343181436
0.1302017719 -0.09699654579 3.3712610479936138e-06 0.00030177127536731965
0.1355232298 -0.09699654579 -5.5060421895914985e-05 0.00032639570336362027
0.1408446878 -0.09699654579 -0.0001311346254035209 0.0003325281833795778
0.1461661458 -0.09699654579 -0.00020887172542448888 0.0003387012003172778
0.1514876038 -0.09699654579 -0.0002881864959399922 0.0003446405147311556
0.1568090618 -0.09699654579 -0.00036712718861416077 0.00035057556354588145
0.1621305197 -0.09699654579 -0.00044265178782774636 0.00035766755770856714
0.1674519777 -0.09699654579 -0.00048227086054994286 0.00032788730868529376
0.1727734357 -0.09699654579 -0.000510896263165964 0.0002843345646937755
0.1780948937 -0.09699654579 -0.000539393447828836 0.00023650649060045082
0.1834163517 -0.09699654579 -0.0005651407469682515 0.00019018121360254826
0.1887378097 -0.09699654579 -0.0005951622848235782 0.0001521212299936963
0.1940592676 -0.09699654579 -0.0006220591074366414 0.00011409283203954358
0.1993807256 -0.09699654579 -0.0006025449764724506 0.00010939211160832736
0.2047021836 -0.09699654579 -0.0005695064897728311 0.0001135545618226791
0.2100236416 -0.09699654579 -0.0005426809681701159 0.0001152518623144565
0.2153450996 -0.09699654579 -0.0005178251235479958 0.00011685428512796807
0.2206665576 -0.09699654579 -0.0004951265489608181 0.00011856067946787783
0.2259880155 -0.09699654579 -0.0004672313147715424 0.00012020829924695905
0.2313094735 -0.09699654579 -0.000470424063026082 0.00016375617593239916
0.2366309315 -0.09699654579 -0.0004806760320956091 0.00021780165928765948
0.2419523895 -0.09699654579 -0.0004909974235027761 0.000271837059845267
0.2472738475 -0.09699654579 -0.0005017494350844867 0.00032583308465441004
0.2525953054 -0.09699654579 -0.0005118820458772473 0.0003748662114962694
0.2579167783 -0.09699654579 -0.000518755331516836 0.00042068155469489283
0.2632382214 -0.09699654579 -0.0005577673059062865 0.0004576193007269508
0.2685596943 -0.09699654579 -0.0006028543552586839 0.0004918959087523628
0.2738811374 -0.09699654579 -0.0006467703440288383 0.0005241731524017681
0.2792026103 -0.09699654579 -0.0006916671266896946 0.0005528834707662312
0.2845240533 -0.09699654579 -0.0007300038444412259 0.0005828076732732479
0.2898455262 -0.09699654579 -0.0007751815631087825 0.0006134748467922065
0.2951669693 -0.09699654579 -0.0008372155666966641 0.0006284657114573023
0.3004884422 -0.09699654579 -0.0008955037173432747 0.000637962058747356
0.3058098853 -0.09699654579 -0.0009499766127925504 0.0006482426612395229
0.3111313581 -0.09699654579 -0.0010046247198698638 0.0006585638373721026
0.3164528012 -0.09699654579 -0.0010578974529666936 0.0006685600096660253
0.3217742741 -0.09699654579 -0.0011097863040652588 0.0006735216504014655
0.3270957172 -0.09699654579 -0.0011676340253273499 0.0006378993383728076
0.3324171901 -0.09699654579 -0.0012211392213055498 0.0006026371793460933
0.3377386332 -0.09699654579 -0.0012755508983453416 0.0005686296374588119
0.343060106 -0.09699654579 -0.001329796723857076 0.0005356791138804022
0.3483815491 -0.09699654579 -0.001382034254456378 0.0005026540483310456
0.353703022 -0.09699654579 -0.001411325573555933 0.0004549437077577604
0.3590244651 -0.09699654579 -0.00139876259367236 0.0003842479028268403
0.364345938 -0.09699654579 -0.0013864104826944823 0.00032048546537643603
0.369667381 -0.09699654579 -0.0013718699023575593 0.00025666739621901807
0.3749888539 -0.09699654579 -0.0013630291921807494 0.00019280202285216095
0.380310297 -0.09699654579 -0.0013530439791368883 0.00013276632375542168
0.3856317699 -0.09699654579 -0.0013090601076077687 0.00012505179692263814
0.390953213 -0.09699654579 -0.00124744768940907 0.00012920579748700576
0.3962746859 -0.09699654579 -0.001183932640503328 0.00013447282099374224
0.4015961289 -0.09699654579 -0.0011282268387576453 0.00013821228740280885
0.4069176018 -0.09699654579 -0.0010770702216520269 0.00014260939814355396
0.4122390449 -0.09699654579 -0.001043074818305446 0.00016899719581924902
0.4175605178 -0.09699654579 -0.001032783215828705 0.00022429210131893288
0.4228819609 -0.09699654579 -0.0010245148363839057 0.00027326674162730735
0.4282034338 -0.09699654579 -0.001018730434521304 0.00032006956793232647
0.4335248768 -0.09699654579 -0.0010110164060366696 0.0003676489513024266
0.4388463497 -0.09699654579 -0.0010159709432157045 0.00041295724310252914
0.4441677928 -0.09699654579 -0.0010585990665796035 0.00044113842347737035
0.4494892657 -0.09699654579 -0.0011010153915323939 0.00046884490235010333
0.4548107088 -0.09699654579 -0.0011469380693789868 0.0004962202593198895
0.4601321816 -0.09699654579 -0.0011885429086418802 0.0005233271413988588
0.4654536247 -0.09699654579 -0.0012275913551296636 0.0005382072555126102
0.4707750976 -0.09699654579 -0.0012677047525261147 0.0005382863929852802
0.4760965407 -0.09699654579 -0.0013056486727837302 0.0005361972758421827
0.4814180136 -0.09699654579 -0.0013427562712096351 0.0005360103078035286
0.4867394567 -0.09699654579 -0.0013774369660982232 0.0005367465303061131
0.4920609295 -0.09699654579 -0.0013974050528689603 0.000530124100759261
0.4973823726 -0.09699654579 -0.0014124209352844356 0.0005222165576052315
0.5027038455 -0.09699654579 -0.0014280539516317754 0.0005160668801575434
0.5080252886 -0.09699654579 -0.0014403713422770446 0.0005092328134436318
0.5133467317 -0.09699654579 -0.0014480061580801327 0.0005040406372145516
0.5186682343 -0.09699654579 -0.0014505663704836792 0.0005024591995463969
0.5239896774 -0.09699654579 -0.001451582365262858 0.0005024265889252585
0.5293111205 -0.09699654579 -0.0014557295576242061 0.0005008878052861299
0.5346325636 -0.09699654579 -0.0014530127010488761 0.0005025801136795011
0.5399540663 -0.09699654579 -0.001445658424341119 0.0005091617220439947
0.5452755094 -0.09699654579 -0.0014366393225837928 0.0005167307784921348
0.5505969524 -0.09699654579 -0.0014271372015310726 0.000522965609111641
0.5559183955 -0.09699654579 -0.0014137153416408329 0.0005377000940036832
0.5612398982 -0.09699654579 -0.0013960812705486254 0.0005566042047462569
0.5665613413 -0.09699654579 -0.0013827399256393926 0.0005756847091367501
0.5718827844 -0.09699654579 -0.001359514636689984 0.000599229837984299
0.5772042274 -0.09699654579 -0.0013350158562712624 0.0006335671757422725
0.5825257301 -0.09699654579 -0.0013110878426703392 0.0006679628401809494
0.5878471732 -0.09699654579 -0.0012846854467990665 0.0007071171390220718
0.5931686163 -0.09699654579 -0.0012559797468407003 0.0007541762078200969
0.5984900594 -0.09699654579 -0.0012278155117274193 0.0008016232880588981
0.6038115621 -0.09699654579 -0.00120335747479654 0.0008564059092246757
0.6091330051 -0.09699654579 -0.00118036850319366 0.0009154552743421067
0.6144544482 -0.09699654579 -0.0011552854119655938 0.0009756967369207962
0.6197758913 -0.09699654579 -0.0011408166638496927 0.0010411646284196525
0.625097394 -0.09699654579 -0.0011211888786016656 0.0011077904342557583
0.6304188371 -0.09699654579 -0.0011003035050612911 0.0011764783580994278
0.6357402802 -0.09699654579 -0.0010793505173411926 0.0012468823972362096
0.6410617828 -0.09699654579 -0.001055648945515178 0.001321935396830018
0.6463832259 -0.09699654579 -0.0010346553339254793 0.001400180523147375
0.651704669 -0.09699654579 -0.001018686792511444 0.0014820329374278312
0.6570261121 -0.09699654579 -0.000995607238113157 0.0015714950372006653
0.6623476148 -0.09699654579 -0.0009729536877726722 0.0016653671383374704
0.6676690578 -0.09699654579 -0.0009444445516613234 0.0017644056498751497
0.6729905009 -0.09699654579 -0.0009140245822198395 0.0018679079278510128
0.678311944 -0.09699654579 -0.000879101228886167 0.0019787893297422785
0.6836334467 -0.09699654579 -0.0008457919802746861 0.0020971234075114185
0.6889548898 -0.09699654579 -0.0008054214120969339 0.002228581473505495
0.6942763329 -0.09699654579 -0.0007699711184878063 0.0023689294630400517
0.6995977759 -0.09699654579 -0.0007283838544755147 0.002519653633410813
0.7049192786 -0.09699654579 -0.0006968218701178203 0.002682015454879548
0.7102407217 -0.09699654579 -0.0006557391708976265 0.002857828470789081
0.7155621648 -0.09699654579 -0.0006258370332166604 0.003050712723728241
0.7208836079 -0.09699654579 -0.0005933936477727542 0.0032554481776201002
0.7262051105 -0.09699654579 -0.00056838829705056 0.0034752637974218535
0.7315265536 -0.09699654579 -0.0005486897266184309 0.003706901568557019
0.7368479967 -0.09699654579 -0.000533758127528405 0.00395158517999732
0.7421694398 -0.09699654579 -0.0005262141997846955 0.004209979628928696
0.7474909425 -0.09699654579 -0.0005186262884322459 0.0044809121138618116
0.7528123856 -0.09699654579 -0.0005218171267713114 0.0047653509163343485
0.7581338286 -0.09699654579 -0.0005334484847985709 0.0050703271577743556
-0.3008363545 -0.09367749095 0.0006883259989691922 -0.0008581852100704858
-0.2955148816 -0.09367749095 0.0007369174930251189 -0.0008520630158598726
-0.2901934385 -0.09367749095 0.0008199195524702303 -0.0008128192475605251
-0.2848719656 -0.09367749095 0.0007601316475013285 -0.0007814215779355572
-0.2795505226 -0.09367749095 0.0006763660669059236 -0.0007588129190108781
-0.2742290497 -0.09367749095 0.0006335030997164465 -0.0007156125886807975
-0.2689076066 -0.09367749095 0.0005813207249862021 -0.0007026511383691464
-0.2635861337 -0.09367749095 0.0005216374032472206 -0.0007826461962621599
-0.2582646906 -0.09367749095 0.0005425626801126071 -0.0008192085757717599