VARIABLES = X,Y,phix,phiy
ZONE I=200,J=200,F=POINT 
-0.3008363545 -0.1003156006 -0.0002888311687617382 0.0005384933707847045
-0.2955148816 -0.1003156006 -0.000301403577818594 0.0005763697107892992
-0.2901934385 -0.1003156006 -0.00030990066959833175 0.0006298691630082011
-0.2848719656 -0.1003156006 -0.00031713098842022175 0.0006841330764559172
-0.2795505226 -0.1003156006 -0.000315742638955348 0.0007350805685264088
-0.2742290497 -0.1003156006 -0.00030569643824229775 0.000784108490526011
-0.2689076066 -0.1003156006 -0.00029496963305682757 0.0008159519306233978
-0.2635861337 -0.1003156006 -0.0003051146659603964 0.0007384648423018179
-0.2582646906 -0.1003156006 -0.00031813077097444847 0.0006284821022189915
-0.2529432178 -0.1003156006 -0.0003363950688231044 0.0005115316742890458
-0.2476217598 -0.1003156006 -0.00036154410194599596 0.000367467276990351
-0.2423003018 -0.1003156006 -0.0003926679094691679 0.00026357972873574173
-0.2369788438 -0.1003156006 -0.0004188510603902587 0.00020233379695015714
-0.2316573858 -0.1003156006 -0.0004356696808449561 0.00014670731788768825
-0.2263359278 -0.1003156006 -0.0004463346854258697 9.211171857975383e-05
-0.2210144699 -0.1003156006 -0.00037233286711931305 6.435178704639094e-05
-0.2156930119 -0.1003156006 -0.0002900636540332149 4.6975312650772374e-05
-0.2103715539 -0.1003156006 -0.0002066503952701575 3.0122659528320463e-05
-0.2050500959 -0.1003156006 -0.00014552119083335952 3.07400171038694e-05
-0.1997286379 -0.1003156006 -7.673959367084081e-05 5.334507361019344e-06
-0.19440718 -0.1003156006 8.607797620957767e-07 -2.472564458063483e-05
-0.189085722 -0.1003156006 4.899831763727558e-05 -1.2189751547878221e-05
-0.183764264 -0.1003156006 8.277538773941702e-05 2.366593166120233e-05
-0.178442806 -0.1003156006 0.00011988647953174765 6.415235967513849e-05
-0.173121348 -0.1003156006 0.00011823785558826185 0.00010179716918280806
-0.16779989 -0.1003156006 0.00011008717030279485 0.00013697245047813555
-0.1624784321 -0.1003156006 9.964813546642098e-05 0.00016338041467796837
-0.1571569741 -0.1003156006 9.336442635119301e-05 0.00017813943224175916
-0.1518355161 -0.1003156006 7.694347621451902e-05 0.0001960540979196521
-0.1465140581 -0.1003156006 5.3612823215207354e-05 0.0002175440894249358
-0.1411926001 -0.1003156006 3.320312618792381e-05 0.00023289480536994633
-0.1358711421 -0.1003156006 1.7016446314691864e-05 0.00023194974134330205
-0.1305496842 -0.1003156006 2.4829460309420195e-06 0.00023087690633036046
-0.1252282262 -0.1003156006 -2.2309329965028444e-05 0.0002268200383551324
-0.1199067682 -0.1003156006 -3.503013077466445e-05 0.0002193869458762743
-0.1145853102 -0.1003156006 -4.559440989310463e-05 0.00021141826857352104
-0.1092638522 -0.1003156006 -5.5313821032224253e-05 0.00020285712578837055
-0.1039423943 -0.1003156006 -6.432020787587817e-05 0.00019375358349229703
-0.09862093627 -0.1003156006 -6.181224979151528e-05 0.00016700051939695328
-0.09329947084 -0.1003156006 -5.6180648046888823e-05 0.00013649478092286898
-0.08797801286 -0.1003156006 -5.0748414381197056e-05 0.00010592159952178331
-0.08265655488 -0.1003156006 -4.42780686453719e-05 7.420686151340386e-05
-0.0773350969 -0.1003156006 -1.916685913649922e-05 3.597276012332704e-05
-0.07201363891 -0.1003156006 5.535764398062249e-06 -2.0565191904496293e-06
-0.06669218093 -0.1003156006 3.0076593526304108e-05 -4.008169753389594e-05
-0.06137072667 -0.1003156006 5.561718566761643e-05 -8.113843382851382e-05
-0.05604926869 -0.1003156006 7.809875797144814e-05 -9.921287683950987e-05
-0.05072781071 -0.1003156006 0.00010002739424526417 -0.00011225790816962988
-0.045406349 -0.1003156006 0.00012326089906265037 -0.00012562858389496195
-0.04008489102 -0.1003156006 0.00014637341444518823 -0.00013828697144351924
-0.03476343304 -0.1003156006 0.00016593078856223185 -0.00014509871593710666
-0.02944197692 -0.1003156006 0.00018347471164243293 -0.00013932762854830896
-0.02412051894 -0.1003156006 0.0002027035611889065 -0.00013342392031807752
-0.01879905909 -0.1003156006 0.0002217924559927816 -0.0001271476443299087
-0.01347760204 -0.1003156006 0.00023764298093773955 -0.00012124332120486665
-0.00815614406 -0.1003156006 0.0002583172257161891 -0.00011438865245026897
-0.00283468538 -0.1003156006 0.00027967881099817573 -0.00010658153966940949
0.002486772602 -0.1003156006 0.0003023070722943922 -9.832305035635735e-05
0.007808230817 -0.1003156006 0.00032951242244743425 -8.994576424282723e-05
0.0131296888 -0.1003156006 0.00035012893405768705 -8.214040542504537e-05
0.01845114678 -0.1003156006 0.0003643826244117777 -7.473388370816131e-05
0.02377260476 -0.1003156006 0.00037197095167750915 -6.774947645687319e-05
0.02909406275 -0.1003156006 0.00037852714897905764 -6.0300174477514056e-05
0.03441552073 -0.1003156006 0.00038775896532672674 -5.283691793311921e-05
0.03973697871 -0.1003156006 0.00039377641548233325 -4.5721007360007364e-05
0.04505843669 -0.1003156006 0.0003978812277277869 -4.6510439647032965e-05
0.05037989467 -0.1003156006 0.0004057291949914881 -6.13789818328967e-05
0.05570135266 -0.1003156006 0.00040446382860826244 -7.694100594100868e-05
0.06102281436 -0.1003156006 0.0004062300619062553 -9.283619431614558e-05
0.06634426862 -0.1003156006 0.0004102099537254162 -0.00010804200292146382
0.0716657266 -0.1003156006 0.00041465137274756603 -0.0001227954771305133
0.07698718458 -0.1003156006 0.0004407139181036486 -0.00012265187017028553
0.08230864257 -0.1003156006 0.0004695534058564845 -0.00012148721046557472
0.08763010055 -0.1003156006 0.0005004764333390538 -0.00012033505196185815
0.09295155853 -0.1003156006 0.0005293220800161835 -0.00011919717845758759
0.09827301651 -0.1003156006 0.0005583453494316891 -0.00011801381757661201
0.1035944745 -0.1003156006 0.0005759037161082689 -0.0001048383179957179
0.1089159325 -0.1003156006 0.0005739661399368979 -6.730883813328195e-05
0.1142373979 -0.1003156006 0.000572618415465429 -2.9612836547463022e-05
0.1195588559 -0.1003156006 0.0005725234369721947 4.8506545508194e-06
0.1248803139 -0.1003156006 0.0005730798220499318 4.065139613085624e-05
0.1302017719 -0.1003156006 0.0005708104726408137 7.690433674004773e-05
0.1355232298 -0.1003156006 0.0005537223821668624 9.601290303637234e-05
0.1408446878 -0.1003156006 0.0005205301704582603 0.00010270101285093763
0.1461661458 -0.1003156006 0.0004884299825759994 0.00010913591551864274
0.1514876038 -0.1003156006 0.0004615009035855875 0.000115670793805344
0.1568090618 -0.1003156006 0.0004311530571630168 0.00012220809116634973
0.1621305197 -0.1003156006 0.0004031562921612235 0.00012879666484627748
0.1674519777 -0.1003156006 0.0003855690140376555 0.0001099136097108372
0.1727734357 -0.1003156006 0.0003748073749585827 8.101309159910529e-05
0.1780948937 -0.1003156006 0.0003632071584494284 5.188729547462039e-05
0.1834163517 -0.1003156006 0.0003516080608425145 2.288889541382593e-05
0.1887378097 -0.1003156006 0.00034224245839251354 -5.5564065420388755e-06
0.1940592676 -0.1003156006 0.00032931909331415714 -3.2849067727588135e-05
0.1993807256 -0.1003156006 0.00034384185301143005 -4.373559661629011e-05
0.2047021836 -0.1003156006 0.0003629813462551605 -5.005622268018541e-05
0.2100236416 -0.1003156006 0.0003806237569279602 -5.620273663131179e-05
0.2153450996 -0.1003156006 0.00039929334039534077 -6.272702955947735e-05
0.2206665576 -0.1003156006 0.0004171190507223672 -6.9143476139124e-05
0.2259880155 -0.1003156006 0.0004349115855749794 -7.55171756398235e-05
0.2313094735 -0.1003156006 0.0004468119294853762 -6.34563445789002e-05
0.2366309315 -0.1003156006 0.00045350726455153505 -4.5997859254037565e-05
0.2419523895 -0.1003156006 0.00045842105613765576 -2.8914123778775842e-05
0.2472738475 -0.1003156006 0.0004681219608389738 -1.1946178442792357e-05
0.2525953054 -0.1003156006 0.00047051240045650923 6.208572618739511e-06
0.2579167783 -0.1003156006 0.0004714018158385932 2.356329497211871e-05
0.2632382214 -0.1003156006 0.00046081194304813745 3.940541771894542e-05
0.2685596943 -0.1003156006 0.00044886482606800116 5.539331903889773e-05
0.2738811374 -0.1003156006 0.0004382891479607306 7.145911579025959e-05
0.2792026103 -0.1003156006 0.000423017310811659 8.739814328999134e-05
0.2845240533 -0.1003156006 0.0004099205528432601 0.00010318383703239684
0.2898455262 -0.1003156006 0.00039444200466413394 0.00011857958306341468
0.2951669693 -0.1003156006 0.00036925088554636226 0.0001369986088501475
0.3004884422 -0.1003156006 0.000335818127277928 0.00015534653307454252
0.3058098853 -0.1003156006 0.000306882073788662 0.00017190148359786024
0.3111313581 -0.1003156006 0.0002769389542024317 0.00018869365572438766
0.3164528012 -0.1003156006 0.0002476910415612504 0.0002052715099008438
0.3217742741 -0.1003156006 0.000216165993370614 0.00022107020680874016
0.3270957172 -0.1003156006 0.00017105974748732455 0.00021580951623269192
0.3324171901 -0.1003156006 0.00012472157263506724 0.00021098909705005394
0.3377386332 -0.1003156006 7.798207294054764e-05 0.00020583928466594306
0.343060106 -0.1003156006 3.084762893966488e-05 0.00020095661633587174
0.3483815491 -0.1003156006 -1.250277280992998e-05 0.0001952741267645959
0.353703022 -0.1003156006 -4.904186859294661e-05 0.000186069615899376
0.3590244651 -0.1003156006 -8.303167746042249e-05 0.00016571560092440153
0.364345938 -0.1003156006 -0.00011419403267953415 0.0001454231007190443
0.369667381 -0.1003156006 -0.00014056474039666873 0.0001271473491639341
0.3749888539 -0.1003156006 -0.00017164064114400356 0.00010845443396078037
0.380310297 -0.1003156006 -0.0002023676578945374 8.943739074485407e-05
0.3856317699 -0.1003156006 -0.00022115352550592057 7.571969225127587e-05
0.390953213 -0.1003156006 -0.0002372169950733761 6.354671367638129e-05
0.3962746859 -0.1003156006 -0.00025489354288942446 5.064907888319847e-05
0.4015961289 -0.1003156006 -0.0002695417981890948 3.833772276261705e-05
0.4069176018 -0.1003156006 -0.00028362521126940537 2.6031910138011664e-05
0.4122390449 -0.1003156006 -0.000300840109446533 1.7769654746790136e-05
0.4175605178 -0.1003156006 -0.0003224594940414487 1.548989170306616e-05
0.4228819609 -0.1003156006 -0.00034446513846158905 1.276962003042639e-05
0.4282034338 -0.1003156006 -0.0003638418699995434 1.0599820716025783e-05
0.4335248768 -0.1003156006 -0.0003834207640683061 6.471629245228797e-06
0.4388463497 -0.1003156006 -0.00040907459281448315 1.1564397949655663e-06
0.4441677928 -0.1003156006 -0.0004427022997530689 -6.302174287426685e-06
0.4494892657 -0.1003156006 -0.00047651789686246524 -1.3527097686553976e-05
0.4548107088 -0.1003156006 -0.0005114450098631951 -2.1693042791395953e-05
0.4601321816 -0.1003156006 -0.000543747582343663 -2.971732356424198e-05
0.4654536247 -0.1003156006 -0.0005734475221937055 -4.540991078169637e-05
0.4707750976 -0.1003156006 -0.0006044946586828705 -7.193688339546845e-05
0.4760965407 -0.1003156006 -0.0006319764483786834 -9.669738869112846e-05
0.4814180136 -0.1003156006 -0.0006597175060031805 -0.00012125103066079818
0.4867394567 -0.1003156006 -0.0006887230077323192 -0.00014640528575730563
0.4920609295 -0.1003156006 -0.0006983893490461056 -0.00017099237914991103
0.4973823726 -0.1003156006 -0.0007015492422796588 -0.0001951328555359079
0.5027038455 -0.1003156006 -0.0007044670390771143 -0.00021911906145570065
0.5080252886 -0.1003156006 -0.0007077213079494733 -0.00024260148508614755
0.5133467317 -0.1003156006 -0.0007080374590580839 -0.0002566994520979821
0.5186682343 -0.1003156006 -0.0007019744013207732 -0.0002617103522632251
0.5239896774 -0.1003156006 -0.0006959187470572406 -0.0002662975834541334
0.5293111205 -0.1003156006 -0.0006908522673934522 -0.0002714962448090334
0.5346325636 -0.1003156006 -0.0006904675966650618 -0.00026961762731671864
0.5399540663 -0.1003156006 -0.0006933715430646084 -0.000258082624079791
0.5452755094 -0.1003156006 -0.0006932785637584518 -0.00024491285645703237
0.5505969524 -0.1003156006 -0.0006943947517572325 -0.00023403577593961722
0.5559183955 -0.1003156006 -0.0007064415047675305 -0.00021810875370415134
0.5612398982 -0.1003156006 -0.0007194147654707512 -0.00019882428230064248
0.5665613413 -0.1003156006 -0.0007319113352431219 -0.0001800542314216529
0.5718827844 -0.1003156006 -0.0007460978594336421 -0.0001610813443372553
0.5772042274 -0.1003156006 -0.0007642871859448799 -0.00013984337399087915
0.5825257301 -0.1003156006 -0.000782178579958873 -0.00011788256844822486
0.5878471732 -0.1003156006 -0.0008041552426657006 -9.52862114226608e-05
0.5931686163 -0.1003156006 -0.0008207728942585789 -6.914709098455895e-05
0.5984900594 -0.1003156006 -0.0008406857059642882 -4.328037661796341e-05
0.6038115621 -0.1003156006 -0.00086296496781989 -1.2603010420230958e-05
0.6091330051 -0.1003156006 -0.0008881467015465754 1.859008336303143e-05
0.6144544482 -0.1003156006 -0.0009109648237568355 5.527510887315744e-05
0.6197758913 -0.1003156006 -0.0009331266694582333 9.390505023543733e-05
0.625097394 -0.1003156006 -0.0009602633501777013 0.00013653511173675547
0.6304188371 -0.1003156006 -0.0009913621108344167 0.00018563860215842784
0.6357402802 -0.1003156006 -0.0010266402324066958 0.00023534396045468033
0.6410617828 -0.1003156006 -0.0010628775759666544 0.0002910653731029478
0.6463832259 -0.1003156006 -0.0011049818992218382 0.00035265121626612707
0.651704669 -0.1003156006 -0.0011482455679214692 0.0004187773130660682
0.6570261121 -0.1003156006 -0.0012029389533687596 0.0004910687861434305
0.6623476148 -0.1003156006 -0.0012628745656382784 0.0005694119422219584
0.6676690578 -0.1003156006 -0.0013256281573472625 0.0006531864851133023
0.6729905009 -0.1003156006 -0.001402414137319096 0.000743665831348821
0.678311944 -0.1003156006 -0.0014864019753361246 0.0008347976032026444
0.6836334467 -0.1003156006 -0.0015743995290306758 0.000930764280316926
0.6889548898 -0.1003156006 -0.0016683323924317067 0.0010385835076362206
0.6942763329 -0.1003156006 -0.0017836867408685488 0.001148350795145508
0.6995977759 -0.1003156006 -0.0019044836427441734 0.0012616863150605809
0.7049192786 -0.1003156006 -0.0020357765867306766 0.0013773620326377317
0.7102407217 -0.1003156006 -0.002185169039843563 0.0014996059582833702
0.7155621648 -0.1003156006 -0.002351981383699599 0.0016273989653690804
0.7208836079 -0.1003156006 -0.002530986817100945 0.0017569763741066453
0.7262051105 -0.1003156006 -0.0027256109338522167 0.0018912696686563697
0.7315265536 -0.1003156006 -0.002946857848680795 0.0020275295845839226
0.7368479967 -0.1003156006 -0.003193390218121792 0.0021629606329336675
0.7421694398 -0.1003156006 -0.0034595064300545508 0.002298474382488524
0.7474909425 -0.1003156006 -0.0037384812211702237 0.0024214731299873867
0.7528123856 -0.1003156006 -0.004057343252325451 0.00254305745716825
0.7581338286 -0.1003156006 -0.004396495257118457 0.002655695411425264
-0.3008363545 -0.09699654579 -0.00031906786427698974 0.0005410863057671027
-0.2955148816 -0.09699654579 -0.00032796308349876396 0.0005689098813361033
-0.2901934385 -0.09699654579 -0.00034376847076957316 0.0006282515158590671
-0.2848719656 -0.09699654579 -0.00034761670138676646 0.0006816192753489542
-0.2795505226 -0.09699654579 -0.0003447682407523675 0.0007336071272352072
-0.2742290497 -0.09699654579 -0.0003344349151046676 0.0007796413914027667
-0.2689076066 -0.09699654579 -0.00032177102344233265 0.0008014244267723134
-0.2635861337 -0.09699654579 -0.00030828169599252136 0.0007811453581942336
-0.2582646906 -0.09699654579 -0.00031489914145263123 0.0006764651479054084
-0.2529432178 -0.09699654579 -0.00033619873582930516 0.0005435025007827698
-0.2476217598 -0.09699654579 -0.0003697282446378574 0.0003700446670531844
-0.2423003018 -0.09699654579 -0.00039949082518839793 0.00022117794992058308
-0.2369788438 -0.09699654579 -0.00041274696727451333 0.00016487172787853024
-0.2316573858 -0.09699654579 -0.0004356809087120769 0.00010986494186185994
-0.2263359278 -0.09699654579 -0.00044439617927051 8.521848492520105e-05
-0.2210144699 -0.09699654579 -0.0003663024534836808 6.631079314188261e-05
-0.2156930119 -0.09699654579 -0.0002858391497886224 5.009754824214777e-05
-0.2103715539 -0.09699654579 -0.00019687943204697224 6.277560261557106e-06
-0.2050500959 -0.09699654579 -0.00011539385035496405 -3.0450443067018622e-05
-0.1997286379 -0.09699654579 -3.869123662134751e-05 -6.037567532350645e-05
-0.19440718 -0.09699654579 4.1762400454052335e-05 -9.333340558736603e-05
-0.189085722 -0.09699654579 9.828614093517224e-05 -5.7875321496462574e-05
-0.183764264 -0.09699654579 0.00013444933738863274 -1.0028312770878588e-05
-0.178442806 -0.09699654579 0.0001676095260694805 4.741480948336195e-05
-0.173121348 -0.09699654579 0.00016815682272417092 8.544357880628414e-05
-0.16779989 -0.09699654579 0.00015769820677145066 0.00011322615328117432
-0.1624784321 -0.09699654579 0.0001467015116539189 0.00016111253265336606
-0.1571569741 -0.09699654579 0.00012814836799840635 0.0001958496935629817
-0.1518355161 -0.09699654579 0.00010227468426778312 0.00022598759095093915
-0.1465140581 -0.09699654579 6.847501700206647e-05 0.0002490426002445113
-0.1411926001 -0.09699654579 3.65711803551353e-05 0.0002644700436480089
-0.1358711421 -0.09699654579 1.300235000861652e-05 0.0002599854852828354
-0.1305496842 -0.09699654579 -1.9278327843873398e-05 0.00025365885136857143
-0.1252282262 -0.09699654579 -4.798136384084126e-05 0.0002465982823530524
-0.1199067682 -0.09699654579 -6.672589150285439e-05 0.00023648848613883305
-0.1145853102 -0.09699654579 -7.595913694680773e-05 0.000227304173346931
-0.1092638522 -0.09699654579 -8.853188446349232e-05 0.00021789968566022358
-0.1039423943 -0.09699654579 -0.00010667333684504205 0.000207863603933758
-0.09862093627 -0.09699654579 -0.0001026371129120968 0.0001755694368198748
-0.09329947084 -0.09699654579 -9.793248785248464e-05 0.000141765058964555
-0.08797801286 -0.09699654579 -9.273506847188125e-05 0.00010639904457812496
-0.08265655488 -0.09699654579 -8.715106806847518e-05 7.1980714885733e-05
-0.0773350969 -0.09699654579 -6.291028571217394e-05 3.0237022193148996e-05
-0.07201363891 -0.09699654579 -3.6170430754137215e-05 -1.3886988583828892e-05
-0.06669218093 -0.09699654579 -1.0440842095593194e-05 -5.7751921214812064e-05
-0.06137072667 -0.09699654579 1.765725307564079e-05 -0.00010092408400842437
-0.05604926869 -0.09699654579 3.97404746203487e-05 -0.00011911370133801883
-0.05072781071 -0.09699654579 6.148735914100162e-05 -0.00013044546331133388
-0.045406349 -0.09699654579 8.63156653001171e-05 -0.00014184821146103358
-0.04008489102 -0.09699654579 0.00011029259543316827 -0.0001539654771138798
-0.03476343304 -0.09699654579 0.00013198929252223267 -0.00016082803430079635
-0.02944197692 -0.09699654579 0.0001553394366606441 -0.00015437721639923642
-0.02412051894 -0.09699654579 0.0001773980610523447 -0.0001478469770723706
-0.01879905909 -0.09699654579 0.00019865925585048287 -0.00014143903596120373
-0.01347760204 -0.09699654579 0.0002211178012063942 -0.00013509620522313468
-0.00815614406 -0.09699654579 0.0002478673885350965 -0.00012763784794132428
-0.00283468538 -0.09699654579 0.00027257103543992263 -0.00011890199078701457
0.002486772602 -0.09699654579 0.0003025427398781945 -0.00011003469199156126
0.007808230817 -0.09699654579 0.00032932955029398974 -0.00010112350062117704
0.0131296888 -0.09699654579 0.00035372615152223303 -9.2300622825593e-05
0.01845114678 -0.09699654579 0.00036999600105019106 -8.313755896525539e-05
0.02377260476 -0.09699654579 0.00037496836709759087 -7.38311718611253e-05
0.02909406275 -0.09699654579 0.0003824880915885077 -6.331033861236536e-05
0.03441552073 -0.09699654579 0.0003880616764356969 -5.26950385793877e-05
0.03973697871 -0.09699654579 0.00039628546740362895 -4.330553571353417e-05
0.04505843669 -0.09699654579 0.00040161561213821725 -4.392741440932319e-05
0.05037989467 -0.09699654579 0.00040155748663127616 -6.183053847790823e-05
0.05570135266 -0.09699654579 0.0004011622185496198 -8.003241279260624e-05
0.06102281436 -0.09699654579 0.00040363435789486895 -9.920799119123815e-05
0.06634426862 -0.09699654579 0.00040476588213450934 -0.00011685264496434487
0.0716657266 -0.09699654579 0.0004069210639292839 -0.00013449549000744588
0.07698718458 -0.09699654579 0.00043935122168320775 -0.00013508747315683423
0.08230864257 -0.09699654579 0.00047157405211145653 -0.00013474233402445616
0.08763010055 -0.09699654579 0.0005037619764263457 -0.00013430878421663228
0.09295155853 -0.09699654579 0.0005368606225301832 -0.0001336066543253888
0.09827301651 -0.09699654579 0.0005683555997206024 -0.0001330546218314293
0.1035944745 -0.09699654579 0.0005885560190426157 -0.00011725569504698709
0.1089159325 -0.09699654579 0.0005870406711973809 -7.325178116986914e-05
0.1142373979 -0.09699654579 0.0005858048437929792 -3.130945352240901e-05
0.1195588559 -0.09699654579 0.0005862046993766943 8.724937876029175e-06
0.1248803139 -0.09699654579 0.000584849859790019 4.875563961469653e-05
0.1302017719 -0.09699654579 0.0005858320219677985 9.055864267196147e-05
0.1355232298 -0.09699654579 0.0005576525699262756 0.00011150537414760395
0.1408446878 -0.09699654579 0.0005203786304262723 0.00011809233709791841
0.1461661458 -0.09699654579 0.00048386305908213275 0.00012463676894600663
0.1514876038 -0.09699654579 0.0004496205303906179 0.000131198844069914
0.1568090618 -0.09699654579 0.0004121380021141311 0.00013780103400902002
0.1621305197 -0.09699654579 0.0003795986036979549 0.00014448337237780415
0.1674519777 -0.09699654579 0.0003616265112166822 0.00012310385431123021
0.1727734357 -0.09699654579 0.0003491867434767908 9.175058108371699e-05
0.1780948937 -0.09699654579 0.00033556566086980047 5.998430653506394e-05
0.1834163517 -0.09699654579 0.00032618874269882024 2.8111086973520348e-05
0.1887378097 -0.09699654579 0.000312231151426495 -1.929859566717268e-06
0.1940592676 -0.09699654579 0.0003004991069456153 -3.189228466470962e-05
0.1993807256 -0.09699654579 0.00031514132519385926 -4.259193703821824e-05
0.2047021836 -0.09699654579 0.0003350508706004895 -4.8389785130957685e-05
0.2100236416 -0.09699654579 0.00035692148486583456 -5.4251725786173904e-05
0.2153450996 -0.09699654579 0.00037714188429051446 -6.040160565113482e-05
0.2206665576 -0.09699654579 0.0003994782688953088 -6.664950481486987e-05
0.2259880155 -0.09699654579 0.0004188674429191576 -7.274773939283332e-05
0.2313094735 -0.09699654579 0.000433000108405954 -5.9079282733376724e-05
0.2366309315 -0.09699654579 0.000443377334652216 -4.1133415845242864e-05
0.2419523895 -0.09699654579 0.00045488322503045114 -2.3323259526580785e-05
0.2472738475 -0.09699654579 0.00046511072009212224 -5.3789767339918805e-06
0.2525953054 -0.09699654579 0.00047259926486123313 1.245953713594934e-05
0.2579167783 -0.09699654579 0.00047887785573441394 2.988423466930352e-05
0.2632382214 -0.09699654579 0.000473238721008075 4.6136688067570416e-05
0.2685596943 -0.09699654579 0.00046536697002382265 6.225600262079314e-05
0.2738811374 -0.09699654579 0.000455934916311057 7.820593584715918e-05
0.2792026103 -0.09699654579 0.0004467126366301757 9.328450926903436e-05
0.2845240533 -0.09699654579 0.00043576537749166104 0.00010896100213432057
0.2898455262 -0.09699654579 0.0004278201690895467 0.00012442321112544923
0.2951669693 -0.09699654579 0.00040362153181828847 0.00014327527314776152
0.3004884422 -0.09699654579 0.00037463915669135847 0.0001621940519081476
0.3058098853 -0.09699654579 0.00034423360396133477 0.00018204778406009033
0.3111313581 -0.09699654579 0.0003138965967507036 0.00020174644650147952
0.3164528012 -0.09699654579 0.00028174512195136786 0.00022072936062762777
0.3217742741 -0.09699654579 0.00025117713807154904 0.0002370024941129997
0.3270957172 -0.09699654579 0.0002038448366172704 0.00023331991488961885
0.3324171901 -0.09699654579 0.00015760338200370984 0.0002300116226977225
0.3377386332 -0.09699654579 0.00011175515482820923 0.00022564675310291502
0.343060106 -0.09699654579 6.437878665888781e-05 0.0002212133287344503
0.3483815491 -0.09699654579 2.0055026706428698e-05 0.00021724145900224197
0.353703022 -0.09699654579 -1.8878007268202483e-05 0.00020735636273515193
0.3590244651 -0.09699654579 -4.692749610102801e-05 0.00018562076367596229
0.364345938 -0.09699654579 -7.616800162465095e-05 0.00016474904044498797
0.369667381 -0.09699654579 -0.00010613841591507814 0.00014403562202146527
0.3749888539 -0.09699654579 -0.00013711109020470876 0.0001230535069912926
0.380310297 -0.09699654579 -0.00016707269861308428 0.00010312298403860537
0.3856317699 -0.09699654579 -0.0001841348604295905 8.924792616387305e-05
0.390953213 -0.09699654579 -0.0001989390173136111 7.735849369016462e-05
0.3962746859 -0.09699654579 -0.00021472607648263128 6.415363901961704e-05
0.4015961289 -0.09699654579 -0.00022926488420382425 5.206429167505888e-05
0.4069176018 -0.09699654579 -0.00024495735548331316 3.926205400447608e-05
0.4122390449 -0.09699654579 -0.00026267564399469836 3.141942765394914e-05
0.4175605178 -0.09699654579 -0.0002867971587167333 3.0439077828834443e-05
0.4228819609 -0.09699654579 -0.00031125449300083564 2.831074590073479e-05
0.4282034338 -0.09699654579 -0.0003310354851837106 2.5351877010468762e-05
0.4335248768 -0.09699654579 -0.00035216861977553475 2.2961420141140044e-05
0.4388463497 -0.09699654579 -0.0003858903381664552 1.949929343411901e-05
0.4441677928 -0.09699654579 -0.0004217409896988835 1.2294174064652994e-05
0.4494892657 -0.09699654579 -0.0004591469331642612 5.3119962267828725e-06
0.4548107088 -0.09699654579 -0.0005000105748578231 -1.596634064491625e-06
0.4601321816 -0.09699654579 -0.0005351239121686626 -8.204176977900848e-06
0.4654536247 -0.09699654579 -0.0005656475605709158 -2.4363989994170724e-05
0.4707750976 -0.09699654579 -0.0005971898369072101 -5.2491229835516026e-05
0.4760965407 -0.09699654579 -0.0006291086663161488 -8.245934496116973e-05
0.4814180136 -0.09699654579 -0.0006614819619549572 -0.0001104936706627811
0.4867394567 -0.09699654579 -0.0006911540284658412 -0.00013726849922696311
0.4920609295 -0.09699654579 -0.0006965140620476684 -0.0001640804683547687
0.4973823726 -0.09699654579 -0.0007008948884663303 -0.0001913376670376363
0.5027038455 -0.09699654579 -0.0007029494228046122 -0.000216307759457736
0.5080252886 -0.09699654579 -0.0007059744722883582 -0.00024184878146081367
0.5133467317 -0.09699654579 -0.0007032376505056872 -0.00025796251512092647
0.5186682343 -0.09699654579 -0.0006971918646376359 -0.0002624040236897118
0.5239896774 -0.09699654579 -0.0006909564425413662 -0.00026682456276258353
0.5293111205 -0.09699654579 -0.0006852700722155215 -0.0002719348354078338
0.5346325636 -0.09699654579 -0.0006802606010679476 -0.0002680911352953028
0.5399540663 -0.09699654579 -0.0006841844551998097 -0.00025506588386965196
0.5452755094 -0.09699654579 -0.0006843448159734511 -0.00024193972136962342
0.5505969524 -0.09699654579 -0.0006854956122964736 -0.0002285110176090621
0.5559183955 -0.09699654579 -0.0006961275898375195 -0.00021015070887872385
0.5612398982 -0.09699654579 -0.0007094223794844805 -0.0001907334156416645
0.5665613413 -0.09699654579 -0.0007222750489495143 -0.0001710977091808096
0.5718827844 -0.09699654579 -0.0007371141662819943 -0.00014982332487371665
0.5772042274 -0.09699654579 -0.0007544466484391025 -0.000128069670688742
0.5825257301 -0.09699654579 -0.0007715397462761416 -0.00010662435432644361
0.5878471732 -0.09699654579 -0.0007897293306793087 -8.194837961885603e-05
0.5931686163 -0.09699654579 -0.000809231080135811 -5.5790005948365965e-05
0.5984900594 -0.09699654579 -0.0008292214391340684 -2.896695885137046e-05
0.6038115621 -0.09699654579 -0.0008508082630826013 1.796036069847317e-06
0.6091330051 -0.09699654579 -0.0008723442440550482 3.474614160976567e-05
0.6144544482 -0.09699654579 -0.0008934756461752562 6.999922611988426e-05
0.6197758913 -0.09699654579 -0.0009160318152677949 0.0001119353544084162
0.625097394 -0.09699654579 -0.0009425039342176875 0.00015451246551852183
0.6304188371 -0.09699654579 -0.0009706971714521075 0.00020499471335504993
0.6357402802 -0.09699654579 -0.0009991040128726157 0.0002592942570249778
0.6410617828 -0.09699654579 -0.0010320314328927495 0.00031509198166159694
0.6463832259 -0.09699654579 -0.0010718030738273506 0.00038023183085596375
0.651704669 -0.09699654579 -0.0011127597964604014 0.0004498559604323083
0.6570261121 -0.09699654579 -0.0011645156804235212 0.0005260720120980793
0.6623476148 -0.09699654579 -0.0012243034762136759 0.0006062219724475977
0.6676690578 -0.09699654579 -0.0012880052824374663 0.0006971547096462513
0.6729905009 -0.09699654579 -0.0013588131197152975 0.0007897744624073461
0.678311944 -0.09699654579 -0.0014346192266087162 0.0008885977709373752
0.6836334467 -0.09699654579 -0.0015180182107270108 0.0009911166132515062
0.6889548898 -0.09699654579 -0.0016140513624812224 0.0011023521080614233
0.6942763329 -0.09699654579 -0.0017212668414547886 0.0012178167149367492
0.6995977759 -0.09699654579 -0.001840376231063891 0.0013399074964298462
0.7049192786 -0.09699654579 -0.00197000828747052 0.0014640856001678572
0.7102407217 -0.09699654579 -0.0021156284900972146 0.0015930914329038762
0.7155621648 -0.09699654579 -0.0022827684707002944 0.0017312214827646724
0.7208836079 -0.09699654579 -0.002459300302039486 0.001876703884007629
0.7262051105 -0.09699654579 -0.0026571294370502717 0.002024927279906665
0.7315265536 -0.09699654579 -0.0028741231627817045 0.0021702180764406084
0.7368479967 -0.09699654579 -0.003118712269353246 0.002321100931699528
0.7421694398 -0.09699654579 -0.0033859364304611255 0.002468016198257942
0.7474909425 -0.09699654579 -0.003671572742074096 0.002615097216305602
0.7528123856 -0.09699654579 -0.003991049067058255 0.0027521471241617073
0.7581338286 -0.09699654579 -0.004334537689245728 0.002875070155125559
-0.3008363545 -0.09367749095 -0.00034587235410306837 0.000537986954362616
-0.2955148816 -0.09367749095 -0.000352591737001125 0.0005624520285807122
-0.2901934385 -0.09367749095 -0.00037324345313651083 0.0006241716955996887
-0.2848719656 -0.09367749095 -0.00038065018629218264 0.0006808896896386505
-0.2795505226 -0.09367749095 -0.0003770164248095625 0.0007327697185978411
-0.2742290497 -0.09367749095 -0.00036436268711227503 0.0007717041446287547
-0.2689076066 -0.09367749095 -0.0003499516061557582 0.0007996967383527103
-0.2635861337 -0.09367749095 -0.00031229763955542653 0.0008105752568194709