VARIABLES = X,Y,phix,phiy
ZONE I=200,J=200,F=POINT 
-0.3008363545 -0.1003156006 0.0003226889835641608 -0.00014937343648454646
-0.2955148816 -0.1003156006 0.00033427009911169233 -0.00015990284509672994
-0.2901934385 -0.1003156006 0.00038035461523633053 -0.00012290209728277204
-0.2848719656 -0.1003156006 0.0004282741219405532 -7.626225292390712e-05
-0.2795505226 -0.1003156006 0.0004508939252503745 -1.3417335896124687e-05
-0.2742290497 -0.1003156006 0.0004035449753893696 5.164048490113866e-05
-0.2689076066 -0.1003156006 0.00037803571376186985 6.111951911834889e-05
-0.2635861337 -0.1003156006 0.00043661168362456044 -4.118687105762673e-06
-0.2582646906 -0.1003156006 0.000469983328864845 -1.3808924933018247e-06
-0.2529432178 -0.1003156006 0.0004585420872575754 5.5623848509121254e-05
-0.2476217598 -0.1003156006 0.00040153269597961245 0.00014728364993320153
-0.2423003018 -0.1003156006 0.0003398154720958974 0.0002390799395505976
-0.2369788438 -0.1003156006 0.0003608027038147612 0.00029226239371988065
-0.2316573858 -0.1003156006 0.00040705754591082127 0.0003445610757554365
-0.2263359278 -0.1003156006 0.0004018522888577687 0.0003807235733733838
-0.2210144699 -0.1003156006 0.0003759729316919943 0.00032098171803326053
-0.2156930119 -0.1003156006 0.0003524696187980504 0.00022065094805540965
-0.2103715539 -0.1003156006 0.0003055028611936045 6.89814994077232e-05
-0.2050500959 -0.1003156006 0.0003803779713785139 -5.929640305824672e-05
-0.1997286379 -0.1003156006 0.00047413012402139327 -0.00014958362955303162
-0.19440718 -0.1003156006 0.0005766733689167096 -0.00019035661699936193
-0.189085722 -0.1003156006 0.0006384766247504619 -0.0001576557028014108
-0.183764264 -0.1003156006 0.0006958537000263211 -0.00013937034406848054
-0.178442806 -0.1003156006 0.0007534672946417411 -0.00012859761907497703
-0.173121348 -0.1003156006 0.0008362713120798894 -0.00010471864770547898
-0.16779989 -0.1003156006 0.0009107013793097929 -8.44826992982913e-05
-0.1624784321 -0.1003156006 0.0010009107874911734 -6.466105818517067e-05
-0.1571569741 -0.1003156006 0.0010541560973700874 -2.8865545722427577e-05
-0.1518355161 -0.1003156006 0.0010822346455344196 1.410770697378418e-05
-0.1465140581 -0.1003156006 0.001108145483907223 5.564451307896322e-05
-0.1411926001 -0.1003156006 0.0011205538902028932 9.684108979380452e-05
-0.1358711421 -0.1003156006 0.0010969879354868848 0.00013454096630441116
-0.1305496842 -0.1003156006 0.0010756051414430394 0.00017220608894014547
-0.1252282262 -0.1003156006 0.0010540836408465075 0.00021238623856419364
-0.1199067682 -0.1003156006 0.0010328555021337762 0.00022010188751781057
-0.1145853102 -0.1003156006 0.0010155384179477032 0.00021929185029411955
-0.1092638522 -0.1003156006 0.0009928204376369694 0.00021735797029164694
-0.1039423943 -0.1003156006 0.0009742163761751787 0.00021513204806088366
-0.09862093627 -0.1003156006 0.0009764343315721647 0.00019951434365275518
-0.09329947084 -0.1003156006 0.0009720386701413283 0.00018376955257666267
-0.08797801286 -0.1003156006 0.0009717961453780055 0.00016814085609411647
-0.08265655488 -0.1003156006 0.0009663899995187392 0.00015285477901173181
-0.0773350969 -0.1003156006 0.0009627900993033737 0.00014710737117269208
-0.07201363891 -0.1003156006 0.000962050683023603 0.00014123116274945507
-0.06669218093 -0.1003156006 0.0009585172047309219 0.00013550077966168185
-0.06137072667 -0.1003156006 0.0009469361534321093 0.00013084773752972248
-0.05604926869 -0.1003156006 0.0009373055270571437 0.00013195192643537378
-0.05072781071 -0.1003156006 0.0009256076633672049 0.00013468324203450073
-0.045406349 -0.1003156006 0.0009168166417673145 0.00013729918247426266
-0.04008489102 -0.1003156006 0.0009048889490743513 0.00014003751171740435
-0.03476343304 -0.1003156006 0.0008957416014765224 0.0001380885572040924
-0.02944197692 -0.1003156006 0.00089349588904555 0.00012619947481482232
-0.02412051894 -0.1003156006 0.000890686508127017 0.00011384154102511491
-0.01879905909 -0.1003156006 0.0008863092842450322 0.00010068806591031518
-0.01347760204 -0.1003156006 0.0008837628809921958 8.829715430832824e-05
-0.00815614406 -0.1003156006 0.0008876632952184828 7.789198987601601e-05
-0.00283468538 -0.1003156006 0.0008953425170184522 6.911353918290774e-05
0.002486772602 -0.1003156006 0.0009069970788240218 6.028213038747504e-05
0.007808230817 -0.1003156006 0.000913056665076771 5.14747192831014e-05
0.0131296888 -0.1003156006 0.0009196173152270249 4.2725753233826225e-05
0.01845114678 -0.1003156006 0.0009200969894652494 4.076946127183536e-05
0.02377260476 -0.1003156006 0.0009134192768578681 4.428932614154874e-05
0.02909406275 -0.1003156006 0.000904878033003609 4.8820403772418085e-05
0.03441552073 -0.1003156006 0.0008976195806142983 5.330032642973598e-05
0.03973697871 -0.1003156006 0.0008910844755471341 5.695737397482723e-05
0.04505843669 -0.1003156006 0.000883839307926426 5.5326985927212056e-05
0.05037989467 -0.1003156006 0.0008810250338529867 4.357820962190892e-05
0.05570135266 -0.1003156006 0.0008778182691389364 3.1098206175936295e-05
0.06102281436 -0.1003156006 0.0008735208263821346 1.8554532559616993e-05
0.06634426862 -0.1003156006 0.0008681184467979148 6.576895934079699e-06
0.0716657266 -0.1003156006 0.00086420580093492 -5.137579800202122e-06
0.07698718458 -0.1003156006 0.0008634051916807435 -2.4612011893704694e-05
0.08230864257 -0.1003156006 0.0008656925887429269 -4.429961270779941e-05
0.08763010055 -0.1003156006 0.0008700163517937398 -6.473208867622075e-05
0.09295155853 -0.1003156006 0.0008712614750552559 -8.455537139389119e-05
0.09827301651 -0.1003156006 0.0008730009096546515 -0.00010408305657327338
0.1035944745 -0.1003156006 0.0008773034704460393 -0.00011155787228885997
0.1089159325 -0.1003156006 0.0008852567233179931 -9.350556381653067e-05
0.1142373979 -0.1003156006 0.0008961843129610467 -7.531749838500502e-05
0.1195588559 -0.1003156006 0.0009055224319910094 -5.860711885247988e-05
0.1248803139 -0.1003156006 0.0009147789448898841 -4.1656382692274756e-05
0.1302017719 -0.1003156006 0.0009266816113276547 -2.4046636015628876e-05
0.1355232298 -0.1003156006 0.0009290729629787512 -1.3700064479406178e-05
0.1408446878 -0.1003156006 0.0009242273570554393 -9.017707285762602e-06
0.1461661458 -0.1003156006 0.0009187714969653452 -3.82732057209559e-06
0.1514876038 -0.1003156006 0.0009156696721676973 1.2721777617216867e-06
0.1568090618 -0.1003156006 0.0009113528899828564 6.3450792188976375e-06
0.1621305197 -0.1003156006 0.0009061178579022974 1.128945222588167e-05
0.1674519777 -0.1003156006 0.0008951280221501419 -3.789562032280231e-06
0.1727734357 -0.1003156006 0.0008814840996216679 -2.8393434922936398e-05
0.1780948937 -0.1003156006 0.0008630889633297236 -5.294355888673948e-05
0.1834163517 -0.1003156006 0.00084954627971162 -7.757696560816488e-05
0.1887378097 -0.1003156006 0.0008313862835794991 -0.0001006240525526933
0.1940592676 -0.1003156006 0.0008152549905224419 -0.0001215564214032004
0.1993807256 -0.1003156006 0.0008238462816142707 -0.00011973252902032894
0.2047021836 -0.1003156006 0.0008355385917258471 -0.00011062767553927455
0.2100236416 -0.1003156006 0.0008521782764777328 -0.00010167231671229994
0.2153450996 -0.1003156006 0.0008616422152230247 -9.187629020767018e-05
0.2206665576 -0.1003156006 0.000874672191819512 -8.192177319353471e-05
0.2259880155 -0.1003156006 0.0008868634040936717 -7.242834132111581e-05
0.2313094735 -0.1003156006 0.0008783479703534397 -4.837690883383737e-05
0.2366309315 -0.1003156006 0.0008635610886591939 -2.475432195701844e-05
0.2419523895 -0.1003156006 0.0008474040461601443 -2.619049879972306e-06
0.2472738475 -0.1003156006 0.0008334852364436651 1.9550877610950594e-05
0.2525953054 -0.1003156006 0.0008145382475855434 4.41238742772082e-05
0.2579167783 -0.1003156006 0.0007991216417730413 6.910666048329697e-05
0.2632382214 -0.1003156006 0.0007717073957709153 8.604850504846201e-05
0.2685596943 -0.1003156006 0.000740805533009579 0.00010039211909534515
0.2738811374 -0.1003156006 0.0007073909934538071 0.00011568644637903488
0.2792026103 -0.1003156006 0.0006785214241145623 0.00013041837447856693
0.2845240533 -0.1003156006 0.0006485268819572832 0.0001429573535399225
0.2898455262 -0.1003156006 0.0006142798087611737 0.00015538195693571294
0.2951669693 -0.1003156006 0.0005750610069278553 0.0001519516681387712
0.3004884422 -0.1003156006 0.0005313485370087807 0.00014571667202117303
0.3058098853 -0.1003156006 0.0004907789533626031 0.00013723729389264537
0.3111313581 -0.1003156006 0.00045218586034676374 0.0001283239995382444
0.3164528012 -0.1003156006 0.0004093440396705577 0.00011968067518539451
0.3217742741 -0.1003156006 0.00036575321467265494 0.00011102577960867508
0.3270957172 -0.1003156006 0.00034270909740875176 8.390749766413556e-05
0.3324171901 -0.1003156006 0.0003187778194065437 5.649264241637918e-05
0.3377386332 -0.1003156006 0.0002961582403890327 2.9216046033911786e-05
0.343060106 -0.1003156006 0.0002699548733678433 1.6218894628815025e-06
0.3483815491 -0.1003156006 0.0002486945962143083 -2.3649951453140677e-05
0.353703022 -0.1003156006 0.00023360536710234495 -4.581393719604945e-05
0.3590244651 -0.1003156006 0.0002347868736458118 -5.8363441256124294e-05
0.364345938 -0.1003156006 0.0002332667932413531 -7.157655544473897e-05
0.369667381 -0.1003156006 0.00023130886536613265 -8.385978794361408e-05
0.3749888539 -0.1003156006 0.00023003950028002243 -9.670299965022775e-05
0.380310297 -0.1003156006 0.00022651788437226232 -0.00010891439633105591
0.3856317699 -0.1003156006 0.00021860391833157137 -9.911022852344217e-05
0.390953213 -0.1003156006 0.00020311808577699666 -8.649729092493865e-05
0.3962746859 -0.1003156006 0.00019137780681721683 -7.413601282159717e-05
0.4015961289 -0.1003156006 0.000179698035760816 -6.242032051937997e-05
0.4069176018 -0.1003156006 0.00016553028112320102 -5.038752512527342e-05
0.4122390449 -0.1003156006 0.00013593088543613504 -4.2541501484250615e-05
0.4175605178 -0.1003156006 8.302512378823665e-05 -3.604553482959426e-05
0.4228819609 -0.1003156006 2.8998887098958038e-05 -2.7943602712809467e-05
0.4282034338 -0.1003156006 -2.3211761950758254e-05 -1.9586243688729818e-05
0.4335248768 -0.1003156006 -7.614439500714998e-05 -1.5717387926320002e-05
0.4388463497 -0.1003156006 -0.000128574586065569 -2.0902325917504272e-05
0.4441677928 -0.1003156006 -0.0001869437848722844 -5.4268576220387224e-05
0.4494892657 -0.1003156006 -0.00024416043681710326 -8.672488009200687e-05
0.4548107088 -0.1003156006 -0.000303511917522466 -0.00011693979247773807
0.4601321816 -0.1003156006 -0.00036009729181222773 -0.0001491050483836659
0.4654536247 -0.1003156006 -0.0004045899795381145 -0.00018702070187894346
0.4707750976 -0.1003156006 -0.0004326870351177676 -0.00023223623301879605
0.4760965407 -0.1003156006 -0.00046597096584417136 -0.0002750355300155104
0.4814180136 -0.1003156006 -0.0004951382784272899 -0.0003178040439376268
0.4867394567 -0.1003156006 -0.0005262111941614167 -0.0003611121786748789
0.4920609295 -0.1003156006 -0.0005445208801995795 -0.0003877039431915031
0.4973823726 -0.1003156006 -0.0005610076161522915 -0.00041015119928388734
0.5027038455 -0.1003156006 -0.0005731043072016687 -0.0004315530089219818
0.5080252886 -0.1003156006 -0.0005898499461995672 -0.0004534912509199616
0.5133467317 -0.1003156006 -0.0006175583623004166 -0.0004710379653601408
0.5186682343 -0.1003156006 -0.0006498211506254377 -0.0004782449054024504
0.5239896774 -0.1003156006 -0.0006792748354287987 -0.0004841199726530661
0.5293111205 -0.1003156006 -0.0007108936324421268 -0.0004917470534780586
0.5346325636 -0.1003156006 -0.000757433632843175 -0.0005039786396472121
0.5399540663 -0.1003156006 -0.0008070033650106282 -0.0005178156360050984
0.5452755094 -0.1003156006 -0.0008581718086150103 -0.0005306192825181323
0.5505969524 -0.1003156006 -0.0009124030947745299 -0.0005447403726500838
0.5559183955 -0.1003156006 -0.0009666768746086215 -0.0005658115853723599
0.5612398982 -0.1003156006 -0.0010230989879637519 -0.0005898464675629912
0.5665613413 -0.1003156006 -0.0010787431424419387 -0.0006139414175318049
0.5718827844 -0.1003156006 -0.0011347095743594806 -0.0006379179207957516
0.5772042274 -0.1003156006 -0.0011809828706990752 -0.0006654419414260696
0.5825257301 -0.1003156006 -0.0012310538438908612 -0.0006928377500784907
0.5878471732 -0.1003156006 -0.0012829614991464173 -0.0007174952878546782
0.5931686163 -0.1003156006 -0.001333604329884427 -0.0007392761689082494
0.5984900594 -0.1003156006 -0.0013839303013496581 -0.0007609157122608776
0.6038115621 -0.1003156006 -0.0014390483147341067 -0.000777245889243888
0.6091330051 -0.1003156006 -0.0014921782457640953 -0.0007917304339609454
0.6144544482 -0.1003156006 -0.0015416417017391961 -0.0008023508947909791
0.6197758913 -0.1003156006 -0.0016021654569607475 -0.0008104038470571656
0.625097394 -0.1003156006 -0.0016577772165353101 -0.0008158407982806242
0.6304188371 -0.1003156006 -0.0017265141870680077 -0.0008165505594491578
0.6357402802 -0.1003156006 -0.0017930026330846497 -0.0008172436909303124
0.6410617828 -0.1003156006 -0.001869452110671836 -0.0008110258340274364
0.6463832259 -0.1003156006 -0.001947605831413682 -0.0007998445247333986
0.651704669 -0.1003156006 -0.0020242731667039727 -0.0007865849030345443
0.6570261121 -0.1003156006 -0.00211266496796493 -0.0007694709636077428
0.6623476148 -0.1003156006 -0.002209066951749625 -0.0007458825642022568
0.6676690578 -0.1003156006 -0.0023088247397089895 -0.0007198879247261909
0.6729905009 -0.1003156006 -0.002423810659193533 -0.0006909747849156963
0.678311944 -0.1003156006 -0.002545711883546593 -0.0006596345302657037
0.6836334467 -0.1003156006 -0.002678251461438016 -0.0006221750205822538
0.6889548898 -0.1003156006 -0.0028248478406862894 -0.0005801828058082272
0.6942763329 -0.1003156006 -0.0029886424839249627 -0.0005354736006171577
0.6995977759 -0.1003156006 -0.0031574144323238385 -0.00048669347220044255
0.7049192786 -0.1003156006 -0.003341114351625812 -0.00043250055492216144
0.7102407217 -0.1003156006 -0.0035436977007200737 -0.00037253292499368914
0.7155621648 -0.1003156006 -0.003763941539359584 -0.000309128192708492
0.7208836079 -0.1003156006 -0.00401121977442936 -0.000244670196629143
0.7262051105 -0.1003156006 -0.004271837937442923 -0.00017597877919520988
0.7315265536 -0.1003156006 -0.004566226033843356 -9.943948034873619e-05
0.7368479967 -0.1003156006 -0.004898989513697826 -1.941477648993335e-05
0.7421694398 -0.1003156006 -0.005263527548375647 6.293901851030152e-05
0.7474909425 -0.1003156006 -0.00564847115000574 0.00012855172056122817
0.7528123856 -0.1003156006 -0.0060868737343641455 0.0002005013472303908
0.7581338286 -0.1003156006 -0.006571284349091545 0.00027055106894993415
-0.3008363545 -0.09699654579 0.0003558536522349846 -0.00015429148281531003
-0.2955148816 -0.09699654579 0.00036186924153489464 -0.00017756047764597182
-0.2901934385 -0.09699654579 0.0004114417381629215 -0.00016387971271362504
-0.2848719656 -0.09699654579 0.00045010179800341027 -0.00011206160119311941
-0.2795505226 -0.09699654579 0.0004898824789310366 -4.903225260476056e-05
-0.2742290497 -0.09699654579 0.0004789375933573654 -3.9906351552494945e-06
-0.2689076066 -0.09699654579 0.0004476957458404227 -2.0210660603348704e-05
-0.2635861337 -0.09699654579 0.0004526670586304766 -3.4708735413873265e-05
-0.2582646906 -0.09699654579 0.0005284278987372896 -3.8575166087644854e-05
-0.2529432178 -0.09699654579 0.000514199940831576 3.3935016172061594e-05
-0.2476217598 -0.09699654579 0.00039069324927456747 0.0001594868477145505
-0.2423003018 -0.09699654579 0.0002905104093430814 0.00028127031908050445
-0.2369788438 -0.09699654579 0.00037131110585236245 0.0003378612481987512
-0.2316573858 -0.09699654579 0.00039081675820749846 0.00038755644120202533
-0.2263359278 -0.09699654579 0.00041186217176425135 0.0004219103917582118
-0.2210144699 -0.09699654579 0.0003938465116799191 0.0003468648010033669
-0.2156930119 -0.09699654579 0.00034751610258292157 0.00019141764108027953
-0.2103715539 -0.09699654579 0.0003022539024444536 1.976980158134719e-05
-0.2050500959 -0.09699654579 0.00036520729617359237 -8.617051004107148e-05
-0.1997286379 -0.09699654579 0.00046597661605531483 -0.00012440394456716025
-0.19440718 -0.09699654579 0.000559897943017148 -0.00017547840581932822
-0.189085722 -0.09699654579 0.0006350135458935538 -0.0001758799995864081
-0.183764264 -0.09699654579 0.0007044093161104215 -0.0001596061357064676
-0.178442806 -0.09699654579 0.000794651344570128 -0.00011428978601500744
-0.173121348 -0.09699654579 0.0008827813953254712 -8.76208334514981e-05
-0.16779989 -0.09699654579 0.0009811838228193366 -7.520799779905651e-05
-0.1624784321 -0.09699654579 0.0010819075910649708 -8.21809170626953e-05
-0.1571569741 -0.09699654579 0.0011379594176013682 -4.4035772805517016e-05
-0.1518355161 -0.09699654579 0.0011607762843954385 -2.993629626698777e-06
-0.1465140581 -0.09699654579 0.001186541985094535 4.8517983239894414e-05
-0.1411926001 -0.09699654579 0.0011997384494551707 9.721970367574145e-05
-0.1358711421 -0.09699654579 0.0011741811442399278 0.00013786528835385656
-0.1305496842 -0.09699654579 0.0011484960613215326 0.00017980569391368872
-0.1252282262 -0.09699654579 0.0011159693404501183 0.0002243623891069936
-0.1199067682 -0.09699654579 0.0010881613859272503 0.00023317075840844498
-0.1145853102 -0.09699654579 0.0010603071626770712 0.00023347502984980345
-0.1092638522 -0.09699654579 0.0010328833329764037 0.00023005390608829497
-0.1039423943 -0.09699654579 0.001007369121706029 0.00022090689811569782
-0.09862093627 -0.09699654579 0.0010029786245876163 0.00020404787190047386
-0.09329947084 -0.09699654579 0.0009960131722729485 0.00018659455646531517
-0.08797801286 -0.09699654579 0.0009873915693311708 0.00016862969399703486
-0.08265655488 -0.09699654579 0.0009806004253173374 0.00015164555261117189
-0.0773350969 -0.09699654579 0.0009714459385917262 0.00014736476733621145
-0.07201363891 -0.09699654579 0.0009585939151649058 0.0001438332812843951
-0.06669218093 -0.09699654579 0.0009427996392526647 0.00014064934476963598
-0.06137072667 -0.09699654579 0.0009255857379943678 0.00013875213176442542
-0.05604926869 -0.09699654579 0.000910639307614781 0.00014149013056562274
-0.05072781071 -0.09699654579 0.0008931247513256067 0.0001452467835224816
-0.045406349 -0.09699654579 0.0008766188607592172 0.00014898550225226283
-0.04008489102 -0.09699654579 0.0008620386884940483 0.00015260243397778505
-0.03476343304 -0.09699654579 0.0008527343429746595 0.00015043796691118822
-0.02944197692 -0.09699654579 0.000848566275315918 0.00013598084311220468
-0.02412051894 -0.09699654579 0.0008458409029315235 0.00012181899299155733
-0.01879905909 -0.09699654579 0.0008414286200550406 0.00010741701944244426
-0.01347760204 -0.09699654579 0.000839124158730788 9.242122014379801e-05
-0.00815614406 -0.09699654579 0.000841644791114504 8.065309936217814e-05
-0.00283468538 -0.09699654579 0.0008489501876796091 7.154601144451525e-05
0.002486772602 -0.09699654579 0.000856846276103811 6.219302396330034e-05
0.007808230817 -0.09699654579 0.0008662743713818723 5.280387247359939e-05
0.0131296888 -0.09699654579 0.0008715980108267642 4.359899349848684e-05
0.01845114678 -0.09699654579 0.0008721540461023122 4.259502608859579e-05
0.02377260476 -0.09699654579 0.0008649233400623265 4.7759742769905926e-05
0.02909406275 -0.09699654579 0.0008560653852716937 5.321978696091125e-05
0.03441552073 -0.09699654579 0.0008493323687953202 5.8759821632398265e-05
0.03973697871 -0.09699654579 0.0008410665155285007 6.389235576087318e-05
0.04505843669 -0.09699654579 0.0008357036390779169 6.267817830959512e-05
0.05037989467 -0.09699654579 0.0008358778582673304 4.9324036436542684e-05
0.05570135266 -0.09699654579 0.0008295928726772373 3.579171851253981e-05
0.06102281436 -0.09699654579 0.0008269337982723075 2.18775390668262e-05
0.06634426862 -0.09699654579 0.0008200054603848159 8.601081695066952e-06
0.0716657266 -0.09699654579 0.0008181197473959839 -4.627213341274707e-06
0.07698718458 -0.09699654579 0.0008259039431713379 -2.5980467496101776e-05
0.08230864257 -0.09699654579 0.0008323229383370991 -4.7519794731510707e-05
0.08763010055 -0.09699654579 0.0008370360950952163 -6.902621581817828e-05
0.09295155853 -0.09699654579 0.0008444249043214479 -9.031395717574649e-05
0.09827301651 -0.09699654579 0.0008514918093324861 -0.00011161717917591618
0.1035944745 -0.09699654579 0.0008600276021183729 -0.00011872973050821347
0.1089159325 -0.09699654579 0.0008690374486952145 -9.847177659109726e-05
0.1142373979 -0.09699654579 0.0008751045647260406 -7.954016948822674e-05
0.1195588559 -0.09699654579 0.0008884244348114821 -6.121857953380047e-05
0.1248803139 -0.09699654579 0.0008979444517382936 -4.292952521915346e-05
0.1302017719 -0.09699654579 0.0009093587347491987 -2.4165226737298207e-05
0.1355232298 -0.09699654579 0.0009094371683786614 -1.3995546464236221e-05
0.1408446878 -0.09699654579 0.0009075438314262079 -1.0815745448028567e-05
0.1461661458 -0.09699654579 0.0009053778939353813 -7.288255703670697e-06
0.1514876038 -0.09699654579 0.0009009870301324995 -2.8334628446120355e-06
0.1568090618 -0.09699654579 0.0008955784423207097 1.4107605542800979e-06
0.1621305197 -0.09699654579 0.0008962751894409096 6.058866595546662e-06
0.1674519777 -0.09699654579 0.0008814267190750173 -8.081458312132995e-06
0.1727734357 -0.09699654579 0.0008699587208691789 -2.8985074163609493e-05
0.1780948937 -0.09699654579 0.0008527371772203528 -4.8191058890968714e-05
0.1834163517 -0.09699654579 0.0008401430398207816 -6.780325977419101e-05
0.1887378097 -0.09699654579 0.0008268072660234098 -9.184457682578618e-05
0.1940592676 -0.09699654579 0.000812847499688586 -0.00011584004967699502
0.1993807256 -0.09699654579 0.0008183453042281354 -0.00011179005515291419
0.2047021836 -0.09699654579 0.0008296416557450731 -0.000100195201920372
0.2100236416 -0.09699654579 0.0008513585628704909 -9.824072569833219e-05
0.2153450996 -0.09699654579 0.0008680928030362939 -9.763058054771732e-05
0.2206665576 -0.09699654579 0.0008913701546855367 -9.715005328654463e-05
0.2259880155 -0.09699654579 0.0009112649421234567 -9.596942400728215e-05
0.2313094735 -0.09699654579 0.0009064607943635993 -7.479171987891449e-05
0.2366309315 -0.09699654579 0.0008929365113046899 -4.424453312636775e-05
0.2419523895 -0.09699654579 0.0008761151937083741 -1.3398205929092742e-05
0.2472738475 -0.09699654579 0.0008575486936778414 1.6945598661499725e-05
0.2525953054 -0.09699654579 0.0008453540719891556 4.4219468322868094e-05
0.2579167783 -0.09699654579 0.0008307915902006915 6.854984379448795e-05
0.2632382214 -0.09699654579 0.0007953674238250077 8.681553551686334e-05
0.2685596943 -0.09699654579 0.0007574581652242341 0.00010364786105168653
0.2738811374 -0.09699654579 0.000725204916617213 0.00011701625330380648
0.2792026103 -0.09699654579 0.0006946352429433698 0.00012517718115744825
0.2845240533 -0.09699654579 0.0006630879401633338 0.00013470918086086085
0.2898455262 -0.09699654579 0.0006312526462653001 0.00014609031185066409
0.2951669693 -0.09699654579 0.0005882297507626405 0.00013473622314836168
0.3004884422 -0.09699654579 0.0005469045204374928 0.00012284640370398842
0.3058098853 -0.09699654579 0.0005079413648088643 0.0001177376371543635
0.3111313581 -0.09699654579 0.00046320382420549154 0.00011243209548722411
0.3164528012 -0.09699654579 0.00041751091536588666 0.00010701041690214984
0.3217742741 -0.09699654579 0.00037948690384524025 9.810566377681509e-05
0.3270957172 -0.09699654579 0.00035245724938827227 7.397860886638674e-05
0.3324171901 -0.09699654579 0.0003252485866904328 5.063973467728633e-05
0.3377386332 -0.09699654579 0.00029426142785443047 2.6000418876143656e-05
0.343060106 -0.09699654579 0.00026874616341913764 1.0383887875006227e-06
0.3483815491 -0.09699654579 0.00023997909046368998 -2.394472352025831e-05
0.353703022 -0.09699654579 0.0002280912034008548 -4.541259154832444e-05
0.3590244651 -0.09699654579 0.00023413806912761504 -5.883014023972055e-05
0.364345938 -0.09699654579 0.00023524821335565494 -7.197607719483253e-05
0.369667381 -0.09699654579 0.00023660571102899203 -8.583398660605909e-05
0.3749888539 -0.09699654579 0.0002368595584665171 -9.903566457723075e-05
0.380310297 -0.09699654579 0.00024102645893735002 -0.00011211844583886658
0.3856317699 -0.09699654579 0.00023069259727413418 -0.00010074178579657912
0.390953213 -0.09699654579 0.00021595413488039862 -8.283400898273422e-05
0.3962746859 -0.09699654579 0.00020732674805460367 -6.257220459182931e-05
0.4015961289 -0.09699654579 0.0001940331892903202 -4.6593610184308204e-05
0.4069176018 -0.09699654579 0.000183321285249728 -3.131053010726825e-05
0.4122390449 -0.09699654579 0.00014952621557554098 -1.7010518361657276e-05
0.4175605178 -0.09699654579 8.823242581784445e-05 -3.921982023055863e-06
0.4228819609 -0.09699654579 3.508433287464685e-05 4.4428429325117675e-06
0.4282034338 -0.09699654579 -2.2393125636250407e-05 1.1877474050512178e-05
0.4335248768 -0.09699654579 -7.746374787743065e-05 1.983047563824211e-05
0.4388463497 -0.09699654579 -0.00013491990570044409 1.594983177240081e-05
0.4441677928 -0.09699654579 -0.00019919781974689108 -2.004169051364327e-05
0.4494892657 -0.09699654579 -0.00026186484212166824 -5.514436624713538e-05
0.4548107088 -0.09699654579 -0.0003250809702779101 -9.043467933288352e-05
0.4601321816 -0.09699654579 -0.00038966220972406893 -0.00012411193777414847
0.4654536247 -0.09699654579 -0.0004333622387557603 -0.00016259438481227597
0.4707750976 -0.09699654579 -0.0004636003980227722 -0.000210155769880519
0.4760965407 -0.09699654579 -0.0004941987512069581 -0.0002605857630682277
0.4814180136 -0.09699654579 -0.0005185197697285487 -0.0003084006802467784
0.4867394567 -0.09699654579 -0.0005475029816138267 -0.0003542012052426381
0.4920609295 -0.09699654579 -0.0005624311660585188 -0.00037976695077449404
0.4973823726 -0.09699654579 -0.0005696698075066491 -0.00039956555897663326
0.5027038455 -0.09699654579 -0.0005864649435616868 -0.00042065901624737393
0.5080252886 -0.09699654579 -0.0005994677840334879 -0.0004410813633667845
0.5133467317 -0.09699654579 -0.0006174927630641726 -0.0004531968926043167
0.5186682343 -0.09699654579 -0.0006492999890409018 -0.0004561360585156521
0.5239896774 -0.09699654579 -0.0006824788325393596 -0.0004619888074140554
0.5293111205 -0.09699654579 -0.000716684097318314 -0.00046734102817726247
0.5346325636 -0.09699654579 -0.000756933130877816 -0.00047277050163650665
0.5399540663 -0.09699654579 -0.0008110714238332726 -0.0004852271469583983
0.5452755094 -0.09699654579 -0.0008630477174001296 -0.0004981264159774801
0.5505969524 -0.09699654579 -0.0009191304862665553 -0.0005103117937139379
0.5559183955 -0.09699654579 -0.0009776886601539003 -0.0005311017576318407
0.5612398982 -0.09699654579 -0.0010356514485710517 -0.0005548413294920773
0.5665613413 -0.09699654579 -0.0010902084858806472 -0.0005790867421615234
0.5718827844 -0.09699654579 -0.0011463321318585797 -0.0006045685629754119
0.5772042274 -0.09699654579 -0.001194772858929941 -0.0006326503659420462
0.5825257301 -0.09699654579 -0.0012456947386766453 -0.0006594166092445918
0.5878471732 -0.09699654579 -0.0012890905736661364 -0.0006854719620431225
0.5931686163 -0.09699654579 -0.0013406912067503128 -0.0007071061855890653
0.5984900594 -0.09699654579 -0.0013919234329216048 -0.0007285686385036332
0.6038115621 -0.09699654579 -0.0014431835190631972 -0.0007450162778642758
0.6091330051 -0.09699654579 -0.0014899395219731733 -0.0007581152586245623
0.6144544482 -0.09699654579 -0.0015434259136917693 -0.0007698760093591061
0.6197758913 -0.09699654579 -0.0015973346211232027 -0.0007750895717187553
0.625097394 -0.09699654579 -0.0016557813543137307 -0.0007786291330050548
0.6304188371 -0.09699654579 -0.0017235014982725336 -0.0007780737885310774
0.6357402802 -0.09699654579 -0.001787021008628031 -0.0007726692139875533
0.6410617828 -0.09699654579 -0.0018570354996305866 -0.0007651218835929287
0.6463832259 -0.09699654579 -0.0019315487355923745 -0.0007501483071808959
0.651704669 -0.09699654579 -0.0020096693144705563 -0.0007336854352806932
0.6570261121 -0.09699654579 -0.00210059455116956 -0.0007100108351835232
0.6623476148 -0.09699654579 -0.0021910648443333675 -0.0006835351775712786
0.6676690578 -0.09699654579 -0.0022932980600666552 -0.0006513569481388373
0.6729905009 -0.09699654579 -0.002399969839483566 -0.0006183587717298143
0.678311944 -0.09699654579 -0.0025170152827735637 -0.0005790229510461032
0.6836334467 -0.09699654579 -0.002644614953706341 -0.000533976778850627
0.6889548898 -0.09699654579 -0.0027906108236230563 -0.0004882638478054557
0.6942763329 -0.09699654579 -0.002946472974583341 -0.00043559765610333114
0.6995977759 -0.09699654579 -0.003110546532498129 -0.00037389137642858763
0.7049192786 -0.09699654579 -0.003289727496212582 -0.00031114228162412683
0.7102407217 -0.09699654579 -0.003494046930360569 -0.00024221567350878214
0.7155621648 -0.09699654579 -0.003712727887292429 -0.0001662779087685783
0.7208836079 -0.09699654579 -0.003958927040676926 -8.293526442241981e-05
0.7262051105 -0.09699654579 -0.0042279101181477464 4.486391919846457e-06
0.7315265536 -0.09699654579 -0.0045110026874745175 9.454403585013952e-05
0.7368479967 -0.09699654579 -0.004840343320780888 0.00019648232787769425
0.7421694398 -0.09699654579 -0.005198916200228802 0.00029657424503093854
0.7474909425 -0.09699654579 -0.005599059321377085 0.00039798007612874635
0.7528123856 -0.09699654579 -0.006040659721849866 0.0004931805601832392
0.7581338286 -0.09699654579 -0.006529823359989927 0.0005856441611730593
-0.3008363545 -0.09367749095 0.00039220451598025657 -0.00016184074638090495
-0.2955148816 -0.09367749095 0.00041034105621491455 -0.000187850059261598
-0.2901934385 -0.09367749095 0.0004488933281241453 -0.0001935370799334106
-0.2848719656 -0.09367749095 0.0005203540003142196 -0.00014960292828961386
-0.2795505226 -0.09367749095 0.0005505269325019475 -8.878865890695992e-05
-0.2742290497 -0.09367749095 0.0005656880333025769 -7.538381078517475e-05
-0.2689076066 -0.09367749095 0.000555599857188103 -8.704650187587176e-05
-0.2635861337 -0.09367749095 0.0005553557510335552 -9.31794071755286e-05
-0.2582646906 -0.09367749095 0.0005750868272191442 -5.70607674693362e-05