VARIABLES = X,Y,phix,phiy
ZONE I=200,J=200,F=POINT 
-0.3008363545 -0.1003156006 0.0002791902348784837 7.913340852879546e-05
-0.2955148816 -0.1003156006 0.0002590923245203553 0.00011501114444378212
-0.2901934385 -0.1003156006 0.00019316930459072027 0.00011691710554008219
-0.2848719656 -0.1003156006 0.00012824740700288756 0.00011554446232238672
-0.2795505226 -0.1003156006 5.2491002010513266e-05 9.662428135198467e-05
-0.2742290497 -0.1003156006 -2.189343478550235e-05 5.6180020415809675e-05
-0.2689076066 -0.1003156006 -0.00011109805565404986 -1.865182689821134e-05
-0.2635861337 -0.1003156006 -0.00017855438532943967 -0.00011153747630384688
-0.2582646906 -0.1003156006 -0.0002359938581319045 -0.00016425019790984827
-0.2529432178 -0.1003156006 -0.0002928710637201738 -0.00019352309766198028
-0.2476217598 -0.1003156006 -0.0003636828026035509 -0.00023392767675834333
-0.2423003018 -0.1003156006 -0.0003748040294129168 -0.00027517098448396856
-0.2369788438 -0.1003156006 -0.00034345538881624775 -0.00032044457689486426
-0.2316573858 -0.1003156006 -0.000320209992464505 -0.0003915012879743498
-0.2263359278 -0.1003156006 -0.0003116255988484322 -0.0004811262748071444
-0.2210144699 -0.1003156006 -0.00038088791655719174 -0.0006223504056545742
-0.2156930119 -0.1003156006 -0.000462402452333554 -0.0007906290080590096
-0.2103715539 -0.1003156006 -0.0005590029247340932 -0.0010340860320435373
-0.2050500959 -0.1003156006 -0.00025435089565288733 -0.0011740766770745926
-0.1997286379 -0.1003156006 9.797501936809278e-05 -0.0013123710507975809
-0.19440718 -0.1003156006 0.0004911604913902884 -0.0014364176786197458
-0.189085722 -0.1003156006 0.0007031498194063942 -0.001288496376064178
-0.183764264 -0.1003156006 0.0009226477612848757 -0.0011173875014996377
-0.178442806 -0.1003156006 0.001155660075099398 -0.0009384475333668206
-0.173121348 -0.1003156006 0.0012027431619132754 -0.0007469285757739537
-0.16779989 -0.1003156006 0.0011968746660351184 -0.0005688258307727284
-0.1624784321 -0.1003156006 0.0011944950155599228 -0.0003794269839558285
-0.1571569741 -0.1003156006 0.0011518369239836416 -0.0001979055217168561
-0.1518355161 -0.1003156006 0.0010520869851408472 7.759750608942538e-06
-0.1465140581 -0.1003156006 0.0009399922878050037 0.00022322970680829023
-0.1411926001 -0.1003156006 0.0008198332761943162 0.0003905302642696192
-0.1358711421 -0.1003156006 0.0006907201941166054 0.00044994257963801174
-0.1305496842 -0.1003156006 0.0005597744460826716 0.0005095400511580763
-0.1252282262 -0.1003156006 0.00040470707512196933 0.0005465155351532364
-0.1199067682 -0.1003156006 0.0003064491714591432 0.0005471043565376657
-0.1145853102 -0.1003156006 0.00022253527805070689 0.0005397491190682134
-0.1092638522 -0.1003156006 0.0001340415267341901 0.000527137359500723
-0.1039423943 -0.1003156006 4.5691176378412554e-05 0.0005146108272076838
-0.09862093627 -0.1003156006 -4.717904896605091e-06 0.0004939685103399963
-0.09329947084 -0.1003156006 -5.329082091532387e-05 0.000470150166106605
-0.08797801286 -0.1003156006 -0.00010408020638651235 0.00044645825118640994
-0.08265655488 -0.1003156006 -0.00015061094770522565 0.0004212083260873078
-0.0773350969 -0.1003156006 -0.00016839357846926852 0.00037965283386512654
-0.07201363891 -0.1003156006 -0.0001844584739410339 0.0003380944333648045
-0.06669218093 -0.1003156006 -0.00020106716063802077 0.0002967353075233504
-0.06137072667 -0.1003156006 -0.00021656921341841167 0.00025296949140132623
-0.05604926869 -0.1003156006 -0.0002230956409329187 0.00022389823332374858
-0.05072781071 -0.1003156006 -0.00022973931218346925 0.0001977014461339304
-0.045406349 -0.1003156006 -0.0002359294776790981 0.00017037053495868725
-0.04008489102 -0.1003156006 -0.00024148049644239902 0.0001456014363397134
-0.03476343304 -0.1003156006 -0.00025508755526469976 0.00012719909717762894
-0.02944197692 -0.1003156006 -0.0002780452396404066 0.00012307142529948081
-0.02412051894 -0.1003156006 -0.000306085798418388 0.00011885799649021779
-0.01879905909 -0.1003156006 -0.00033310918202979857 0.00011470195805772976
-0.01347760204 -0.1003156006 -0.0003593292347445102 0.00011057233705531898
-0.00815614406 -0.1003156006 -0.0003785343559804447 0.00010557455085229867
-0.00283468538 -0.1003156006 -0.00039548101689467077 0.00010007615526502497
0.002486772602 -0.1003156006 -0.0004111950217853338 9.263417275430715e-05
0.007808230817 -0.1003156006 -0.00042377924805068947 8.524708299220934e-05
0.0131296888 -0.1003156006 -0.0004397515846700028 7.938732329069805e-05
0.01845114678 -0.1003156006 -0.000443742890326768 6.68584784398476e-05
0.02377260476 -0.1003156006 -0.0004414238034703115 4.910589908663522e-05
0.02909406275 -0.1003156006 -0.0004354169914245915 3.065498765167565e-05
0.03441552073 -0.1003156006 -0.00043285032456432646 1.2182717260060463e-05
0.03973697871 -0.1003156006 -0.00042750607651397156 -5.5533142875194265e-06
0.04505843669 -0.1003156006 -0.0004218501953815755 -2.0883720873985298e-05
0.05037989467 -0.1003156006 -0.00041794765884691865 -3.004003788145233e-05
0.05570135266 -0.1003156006 -0.000415401232195652 -3.827316160958261e-05
0.06102281436 -0.1003156006 -0.00040897709996144075 -4.595144670650226e-05
0.06634426862 -0.1003156006 -0.0004057014736562374 -5.477361780043569e-05
0.0716657266 -0.1003156006 -0.0003997307519907265 -6.413425083056258e-05
0.07698718458 -0.1003156006 -0.00042803894140435513 -6.90471522160146e-05
0.08230864257 -0.1003156006 -0.0004602985302540405 -7.393846750091433e-05
0.08763010055 -0.1003156006 -0.0004906790613900811 -7.804122093622086e-05
0.09295155853 -0.1003156006 -0.0005186854630649464 -8.27741049510726e-05
0.09827301651 -0.1003156006 -0.0005506856332186334 -8.812244156606238e-05
0.1035944745 -0.1003156006 -0.0005680404952373048 -0.00010978611657434742
0.1089159325 -0.1003156006 -0.0005772148681042633 -0.00016357712821173835
0.1142373979 -0.1003156006 -0.0005856971276742681 -0.00021745267721870693
0.1195588559 -0.1003156006 -0.0005896076024305135 -0.00026739279631958604
0.1248803139 -0.1003156006 -0.0005943352849031348 -0.00031883749623289645
0.1302017719 -0.1003156006 -0.0006005444629890853 -0.00037100109205147374
0.1355232298 -0.1003156006 -0.0005698041211299153 -0.00041213215826893475
0.1408446878 -0.1003156006 -0.0005136686366682693 -0.00044455351714220274
0.1461661458 -0.1003156006 -0.0004615003191803122 -0.0004755588855080655
0.1514876038 -0.1003156006 -0.0004094940050938589 -0.0005064177390262367
0.1568090618 -0.1003156006 -0.000357906436358545 -0.0005372172072695627
0.1621305197 -0.1003156006 -0.0003073117009509941 -0.0005681656067256903
0.1674519777 -0.1003156006 -0.00026689274487241664 -0.0005505750631223927
0.1727734357 -0.1003156006 -0.00023118229843205812 -0.0005124751970375478
0.1780948937 -0.1003156006 -0.00019932737905325424 -0.0004744196727549256
0.1834163517 -0.1003156006 -0.00016356792673174998 -0.00043637315338327
0.1887378097 -0.1003156006 -0.00013084375533976074 -0.00039951420324832633
0.1940592676 -0.1003156006 -0.00010068503047213411 -0.0003653348657229413
0.1993807256 -0.1003156006 -0.00010836640017671831 -0.0003339694575595782
0.2047021836 -0.1003156006 -0.00012910275948060907 -0.0003040709823830328
0.2100236416 -0.1003156006 -0.00014818580316034986 -0.00027400184580462654
0.2153450996 -0.1003156006 -0.00016876256404847444 -0.00024662081548814204
0.2206665576 -0.1003156006 -0.00018898784309295962 -0.00021848702026722156
0.2259880155 -0.1003156006 -0.00020595361879694672 -0.00019058131586598392
0.2313094735 -0.1003156006 -0.00024832686511710485 -0.00018772093130166835
0.2366309315 -0.1003156006 -0.0002884386413907133 -0.00019351890030886319
0.2419523895 -0.1003156006 -0.00033266801428667134 -0.00019944714603709982
0.2472738475 -0.1003156006 -0.0003710360929522522 -0.00020544702290405733
0.2525953054 -0.1003156006 -0.0004157074252345251 -0.00021070915700282532
0.2579167783 -0.1003156006 -0.0004584947270997201 -0.00021616185561295454
0.2632382214 -0.1003156006 -0.00047863932279193163 -0.0002495344306255495
0.2685596943 -0.1003156006 -0.0004985831190646399 -0.00029071412021565337
0.2738811374 -0.1003156006 -0.000519159052151753 -0.0003326111026621286
0.2792026103 -0.1003156006 -0.0005369635131912708 -0.0003740920834885945
0.2845240533 -0.1003156006 -0.0005567494664472246 -0.0004118929083717702
0.2898455262 -0.1003156006 -0.0005720395367452592 -0.00044981185888912984
0.2951669693 -0.1003156006 -0.000548543242349649 -0.00048517610597510454
0.3004884422 -0.1003156006 -0.0005171709874699653 -0.0005201735036579198
0.3058098853 -0.1003156006 -0.000487369729266726 -0.0005503040616778019
0.3111313581 -0.1003156006 -0.00045965491070005984 -0.0005802827891855994
0.3164528012 -0.1003156006 -0.0004335090369366043 -0.0006103592633736149
0.3217742741 -0.1003156006 -0.00040386820350520893 -0.0006394401109782462
0.3270957172 -0.1003156006 -0.0003681518697630967 -0.0006154471153722217
0.3324171901 -0.1003156006 -0.0003332370179013523 -0.0005916292029903001
0.3377386332 -0.1003156006 -0.0003025008698547559 -0.00056787064078869
0.343060106 -0.1003156006 -0.00026634058075091383 -0.0005439758652146603
0.3483815491 -0.1003156006 -0.0002328469892309528 -0.0005253100056996148
0.353703022 -0.1003156006 -0.00022156741592588546 -0.0005043533470749277
0.3590244651 -0.1003156006 -0.00024408067224892193 -0.0004777869442882406
0.364345938 -0.1003156006 -0.0002769963297860618 -0.0004512406706377367
0.369667381 -0.1003156006 -0.0002916660963791582 -0.00042883401408582784
0.3749888539 -0.1003156006 -0.0003119995161525166 -0.00040511724676522114
0.380310297 -0.1003156006 -0.0003364707649414688 -0.00038118529041612147
0.3856317699 -0.1003156006 -0.00036330881353322983 -0.0004002591882234818
0.390953213 -0.1003156006 -0.00038966205495317887 -0.00042866654785378785
0.3962746859 -0.1003156006 -0.00041197290956791413 -0.0004561669241537212
0.4015961289 -0.1003156006 -0.00043651891598235707 -0.0004831904360181584
0.4069176018 -0.1003156006 -0.0004565044334203027 -0.0005102674736282163
0.4122390449 -0.1003156006 -0.00046047197923391146 -0.0005371931306210722
0.4175605178 -0.1003156006 -0.0004360397206700465 -0.000569692188715718
0.4228819609 -0.1003156006 -0.00041055390381276294 -0.000603737574077085
0.4282034338 -0.1003156006 -0.0003864014166099553 -0.0006373701860625932
0.4335248768 -0.1003156006 -0.0003613698128022809 -0.0006669010949912995
0.4388463497 -0.1003156006 -0.0003365594694323229 -0.0006868288129574389
0.4441677928 -0.1003156006 -0.0003003417879313344 -0.0006822720008408812
0.4494892657 -0.1003156006 -0.00026861880131844756 -0.0006780327220971283
0.4548107088 -0.1003156006 -0.00023576266849619716 -0.0006755653906523011
0.4601321816 -0.1003156006 -0.00020400661731551813 -0.0006719624347810506
0.4654536247 -0.1003156006 -0.00018101154492583776 -0.0006651812827235676
0.4707750976 -0.1003156006 -0.00017546262192534768 -0.000654318065182315
0.4760965407 -0.1003156006 -0.00016915263962966192 -0.0006454064776021288
0.4814180136 -0.1003156006 -0.0001633453201516872 -0.0006361580602159461
0.4867394567 -0.1003156006 -0.0001549242723211517 -0.0006269219808222937
0.4920609295 -0.1003156006 -0.00015504546622485907 -0.0006292980642542243
0.4973823726 -0.1003156006 -0.00016173700454451075 -0.0006349570540425012
0.5027038455 -0.1003156006 -0.00016552747179073186 -0.0006406401419295525
0.5080252886 -0.1003156006 -0.0001691790751746668 -0.0006465159251105467
0.5133467317 -0.1003156006 -0.00016724809455264875 -0.0006542216704224685
0.5186682343 -0.1003156006 -0.00015819158918062794 -0.0006652291885612134
0.5239896774 -0.1003156006 -0.00014738071002844713 -0.0006761387172531359
0.5293111205 -0.1003156006 -0.0001370530102878131 -0.0006869212838197878
0.5346325636 -0.1003156006 -0.00013114197006246198 -0.0006938616470888813
0.5399540663 -0.1003156006 -0.00012185462500821824 -0.0006965803861227496
0.5452755094 -0.1003156006 -0.00010645153232219879 -0.000698375209836104
0.5505969524 -0.1003156006 -9.785106165640521e-05 -0.0007012811119870717
0.5559183955 -0.1003156006 -9.341946228522489e-05 -0.0007002790826608732
0.5612398982 -0.1003156006 -8.846672620665219e-05 -0.0006957122502127146
0.5665613413 -0.1003156006 -8.584594150941813e-05 -0.0006915472327052251
0.5718827844 -0.1003156006 -8.79827318874701e-05 -0.0006886824445977025
0.5772042274 -0.1003156006 -8.929274356359653e-05 -0.0006853822413615889
0.5825257301 -0.1003156006 -9.122603371021187e-05 -0.0006818863494556811
0.5878471732 -0.1003156006 -9.668495699256551e-05 -0.0006804421264820549
0.5931686163 -0.1003156006 -0.0001036984097505905 -0.0006804441677459821
0.5984900594 -0.1003156006 -0.00011410135579916858 -0.0006807282089641817
0.6038115621 -0.1003156006 -0.00012048890202849285 -0.0006827911242104072
0.6091330051 -0.1003156006 -0.00012440729305770583 -0.0006844528154629888
0.6144544482 -0.1003156006 -0.00013206157834475907 -0.0006876367600950349
0.6197758913 -0.1003156006 -0.00013712528030831441 -0.0006901083433840217
0.625097394 -0.1003156006 -0.00013665258279243269 -0.0006920917452353146
0.6304188371 -0.1003156006 -0.00013527040622048073 -0.0006947149530183585
0.6357402802 -0.1003156006 -0.00013000403121988377 -0.0006964243620042876
0.6410617828 -0.1003156006 -0.00012885733950371178 -0.000697450024247413
0.6463832259 -0.1003156006 -0.00012632025738223764 -0.000695621505715416
0.651704669 -0.1003156006 -0.00012575625238660918 -0.0006918309372476816
0.6570261121 -0.1003156006 -0.00011980613881526802 -0.0006863240485052732
0.6623476148 -0.1003156006 -0.00012624703034244528 -0.0006790755573199722
0.6676690578 -0.1003156006 -0.0001248017283575252 -0.0006697980516933589
0.6729905009 -0.1003156006 -0.00012525633995850882 -0.0006588680227267154
0.678311944 -0.1003156006 -0.00012300525118954782 -0.0006467605197606978
0.6836334467 -0.1003156006 -0.00011944337369931497 -0.0006318758092932853
0.6889548898 -0.1003156006 -0.00012254739864312153 -0.0006122043383544191
0.6942763329 -0.1003156006 -0.00011557990127305055 -0.0005902057927649328
0.6995977759 -0.1003156006 -0.00011155722970659404 -0.0005657647642694596
0.7049192786 -0.1003156006 -0.00010345993001813199 -0.0005404435484148145
0.7102407217 -0.1003156006 -0.00010324393294381732 -0.0005121503475301008
0.7155621648 -0.1003156006 -9.672097740769164e-05 -0.00048099050029524164
0.7208836079 -0.1003156006 -9.280154520058002e-05 -0.00044333945225674475
0.7262051105 -0.1003156006 -8.839492808913153e-05 -0.0003975672883935681
0.7315265536 -0.1003156006 -8.385017616723361e-05 -0.0003470868025830409
0.7368479967 -0.1003156006 -7.638753407761575e-05 -0.0002834732770812376
0.7421694398 -0.1003156006 -7.413107034328812e-05 -0.0002169315650247995
0.7474909425 -0.1003156006 -7.716726796629606e-05 -0.00014644070113944318
0.7528123856 -0.1003156006 -8.919913794894746e-05 -6.285474943822158e-05
0.7581338286 -0.1003156006 -0.00010879728048782641 3.5375741061036326e-05
-0.3008363545 -0.09699654579 0.00024860012502679976 9.10068871392574e-05
-0.2955148816 -0.09699654579 0.00024760520146751354 0.00013876119565415208
-0.2901934385 -0.09699654579 0.00021086808325567356 0.000168556844884527
-0.2848719656 -0.09699654579 0.00013906186683713856 0.00015967750032700007
-0.2795505226 -0.09699654579 6.205498354194153e-05 0.00014572001916199532
-0.2742290497 -0.09699654579 -1.9386984911761527e-05 0.00010036515081979794
-0.2689076066 -0.09699654579 -0.00011043479710367868 5.09792629200292e-06
-0.2635861337 -0.09699654579 -0.00019536876722986343 -7.856520413617073e-05
-0.2582646906 -0.09699654579 -0.00024634980551626695 -0.00012039728110966218
-0.2529432178 -0.09699654579 -0.00031155855060182474 -0.00015899064731416635
-0.2476217598 -0.09699654579 -0.0003969408758463307 -0.00020794684451460642
-0.2423003018 -0.09699654579 -0.00045992673412294363 -0.0002667325308962957
-0.2369788438 -0.09699654579 -0.0004354959845909288 -0.0003290265064662954
-0.2316573858 -0.09699654579 -0.00041399171987496433 -0.0004065122654950866
-0.2263359278 -0.09699654579 -0.0003981545629345671 -0.00045340441525248244
-0.2210144699 -0.09699654579 -0.0004655393338577254 -0.000590607485320495
-0.2156930119 -0.09699654579 -0.0005591645132744836 -0.0008312703225376964
-0.2103715539 -0.09699654579 -0.0006456751353794817 -0.001133751068564199
-0.2050500959 -0.09699654579 -0.0003863628392899187 -0.0013232101487271378
-0.1997286379 -0.09699654579 8.894423939801912e-06 -0.0014457491682487711
-0.19440718 -0.09699654579 0.0004210015960186196 -0.0015697717628977053
-0.189085722 -0.09699654579 0.000737133400072407 -0.0014614604274467982
-0.183764264 -0.09699654579 0.000992079447067225 -0.0012663728022475915
-0.178442806 -0.09699654579 0.0012770377943452582 -0.0010253561787521752
-0.173121348 -0.09699654579 0.0013556505430244279 -0.0008257605665608406
-0.16779989 -0.09699654579 0.00135396178162813 -0.0006198642420261982
-0.1624784321 -0.09699654579 0.0013386203414673659 -0.0003409146590004556
-0.1571569741 -0.09699654579 0.0012564902036212027 -5.2086863883537136e-05
-0.1518355161 -0.09699654579 0.0011441367861722666 0.00018813260940029185
-0.1465140581 -0.09699654579 0.0010304891192180273 0.000396790447012335
-0.1411926001 -0.09699654579 0.0009097103911150755 0.0005545462952744356
-0.1358711421 -0.09699654579 0.0007491930410431099 0.0005870336101862171
-0.1305496842 -0.09699654579 0.0005746617035513101 0.0006053001712541489
-0.1252282262 -0.09699654579 0.00040058536735379686 0.000619762610264788
-0.1199067682 -0.09699654579 0.00027880264213934656 0.0006126208914734917
-0.1145853102 -0.09699654579 0.0001849907158267366 0.0005990769687630933
-0.1092638522 -0.09699654579 9.030356174762194e-05 0.0005847755783962898
-0.1039423943 -0.09699654579 -1.0478461207583303e-05 0.0005659031187918601
-0.09862093627 -0.09699654579 -6.317286822611844e-05 0.0005376439489738269
-0.09329947084 -0.09699654579 -0.00011432190382491724 0.0005048205208793401
-0.08797801286 -0.09699654579 -0.0001687602507001446 0.00046723557255996936
-0.08265655488 -0.09699654579 -0.00022086893669235488 0.00043326252652440466
-0.0773350969 -0.09699654579 -0.00023298899732935143 0.000389187133344726
-0.07201363891 -0.09699654579 -0.00024849441850969704 0.0003428349334180045
-0.06669218093 -0.09699654579 -0.0002631301199130829 0.00029650998255820914
-0.06137072667 -0.09699654579 -0.0002766490689918196 0.0002501829143021866
-0.05604926869 -0.09699654579 -0.0002837347647901733 0.00022366194997639112
-0.05072781071 -0.09699654579 -0.0002921542513521425 0.0002009976722053653
-0.045406349 -0.09699654579 -0.0002964537415303744 0.0001783543334994648
-0.04008489102 -0.09699654579 -0.000304188865307643 0.00015741857056257032
-0.03476343304 -0.09699654579 -0.0003167925002500213 0.00014251836121942035
-0.02944197692 -0.09699654579 -0.00034544406365634515 0.00013872335626807813
-0.02412051894 -0.09699654579 -0.00037339628124222283 0.0001348569428036957
-0.01879905909 -0.09699654579 -0.00040088967980264146 0.00013108255340474345
-0.01347760204 -0.09699654579 -0.00042891228621552485 0.00012750691034556236
-0.00815614406 -0.09699654579 -0.0004463297826970681 0.00012020858968846243
-0.00283468538 -0.09699654579 -0.0004563595737739281 0.00011030451033510881
0.002486772602 -0.09699654579 -0.0004643989270458235 9.919615825484107e-05
0.007808230817 -0.09699654579 -0.00047342920268750495 8.798811054063734e-05
0.0131296888 -0.09699654579 -0.00048099721622050205 7.755431971228919e-05
0.01845114678 -0.09699654579 -0.0004817212609331776 6.257920924584045e-05
0.02377260476 -0.09699654579 -0.0004754062176778524 4.437471237253529e-05
0.02909406275 -0.09699654579 -0.00047111002852991596 2.622749811705856e-05
0.03441552073 -0.09699654579 -0.0004631052603569772 7.971704963494722e-06
0.03973697871 -0.09699654579 -0.0004595283707118872 -1.0133675408785106e-05
0.04505843669 -0.09699654579 -0.00044906621043319016 -2.4839762738848556e-05
0.05037989467 -0.09699654579 -0.00044599356677111235 -3.1159076620765326e-05
0.05570135266 -0.09699654579 -0.00044193509839657964 -3.750917033907653e-05
0.06102281436 -0.09699654579 -0.00043708599548682555 -4.272746116046786e-05
0.06634426862 -0.09699654579 -0.00043165546607260713 -4.9175690836998565e-05
0.0716657266 -0.09699654579 -0.00043000557749722014 -5.5624239253753055e-05
0.07698718458 -0.09699654579 -0.0004596685630611122 -5.8579947665849774e-05
0.08230864257 -0.09699654579 -0.0004934526933152887 -6.148657616052348e-05
0.08763010055 -0.09699654579 -0.0005270529287578835 -6.474936066597427e-05
0.09295155853 -0.09699654579 -0.0005611468349281927 -6.794093276028752e-05
0.09827301651 -0.09699654579 -0.0005941335027751047 -7.118484203797746e-05
0.1035944745 -0.09699654579 -0.0006172496878029976 -9.495368175266021e-05
0.1089159325 -0.09699654579 -0.0006260593189836404 -0.00015618754058144873
0.1142373979 -0.09699654579 -0.0006359376391481958 -0.0002151120142692903
0.1195588559 -0.09699654579 -0.0006454766865598967 -0.0002716038161886444
0.1248803139 -0.09699654579 -0.0006536961155965626 -0.00032813765535087935
0.1302017719 -0.09699654579 -0.0006627431077979032 -0.00038690825103262675
0.1355232298 -0.09699654579 -0.0006284232227865495 -0.00043229289219624096
0.1408446878 -0.09699654579 -0.0005686083729529044 -0.0004663828821344613
0.1461661458 -0.09699654579 -0.0005115074754674393 -0.0005001210148831494
0.1514876038 -0.09699654579 -0.000448412991783177 -0.0005341579135972189
0.1568090618 -0.09699654579 -0.0003887079231778871 -0.000568198680624113
0.1621305197 -0.09699654579 -0.00033053692483902587 -0.0006014050418683831
0.1674519777 -0.09699654579 -0.0002835631471184367 -0.0005777030836055482
0.1727734357 -0.09699654579 -0.00024229340351310358 -0.0005337142713766304
0.1780948937 -0.09699654579 -0.0001996957730302888 -0.00048693346993691555
0.1834163517 -0.09699654579 -0.00016090184342100466 -0.0004414581640003435
0.1887378097 -0.09699654579 -0.00012199010672726105 -0.00040098163593259994
0.1940592676 -0.09699654579 -8.534190535637722e-05 -0.0003606919733960069
0.1993807256 -0.09699654579 -9.385774538291177e-05 -0.00032563384005633583
0.2047021836 -0.09699654579 -0.00011518542733845315 -0.00029207539714322237
0.2100236416 -0.09699654579 -0.00013551666888497453 -0.0002617980149877039
0.2153450996 -0.09699654579 -0.00015359065304669205 -0.00023217982782691284
0.2206665576 -0.09699654579 -0.0001737250191098292 -0.00020237450189689116
0.2259880155 -0.09699654579 -0.00019224887664875847 -0.00017261114415523056
0.2313094735 -0.09699654579 -0.00023680305569940483 -0.00017084020233386793
0.2366309315 -0.09699654579 -0.000281974951800389 -0.00017510550120310959
0.2419523895 -0.09699654579 -0.00032622513242191195 -0.00017945701754818133
0.2472738475 -0.09699654579 -0.0003746961074310364 -0.00018363636777059055
0.2525953054 -0.09699654579 -0.00042016699726982946 -0.00018850327765033046
0.2579167783 -0.09699654579 -0.0004640987790740903 -0.0001942126215015061
0.2632382214 -0.09699654579 -0.00048737298837157064 -0.00023405768847483815
0.2685596943 -0.09699654579 -0.0005102997646241904 -0.00028047813903830975
0.2738811374 -0.09699654579 -0.0005280693278061 -0.0003258796091168558
0.2792026103 -0.09699654579 -0.0005464325082563832 -0.0003691084729786505
0.2845240533 -0.09699654579 -0.0005646287709257878 -0.00041328310810188
0.2898455262 -0.09699654579 -0.0005833023759917504 -0.000457612599500486
0.2951669693 -0.09699654579 -0.0005510626260667763 -0.0004997407376501471
0.3004884422 -0.09699654579 -0.0005115118090843322 -0.0005377228890516993
0.3058098853 -0.09699654579 -0.00048109528185140237 -0.0005744298612405218
0.3111313581 -0.09699654579 -0.00044577104167655215 -0.0006112404378091025
0.3164528012 -0.09699654579 -0.0004138772079663549 -0.000647112620755293
0.3217742741 -0.09699654579 -0.0003822458379756123 -0.0006751045357716084
0.3270957172 -0.09699654579 -0.0003440199683221387 -0.0006439908290678812
0.3324171901 -0.09699654579 -0.0003088668124326671 -0.0006132756629004628
0.3377386332 -0.09699654579 -0.00027138505582059773 -0.0005841982202277529
0.343060106 -0.09699654579 -0.00023704349948112417 -0.0005574706638726584
0.3483815491 -0.09699654579 -0.00020026107836162372 -0.0005304231572467661
0.353703022 -0.09699654579 -0.00019092230203583238 -0.0005006000976794018
0.3590244651 -0.09699654579 -0.00022557068233740676 -0.00046835450880702547
0.364345938 -0.09699654579 -0.0002575147958156421 -0.00044013744617514653
0.369667381 -0.09699654579 -0.00028530627026276457 -0.00041201292601815843
0.3749888539 -0.09699654579 -0.0003163694661733539 -0.0003836817735895635
0.380310297 -0.09699654579 -0.0003440684796907167 -0.00035674772516735057
0.3856317699 -0.09699654579 -0.0003718975025002395 -0.0003782380329427465
0.390953213 -0.09699654579 -0.0004046143453507285 -0.0004117819489391346
0.3962746859 -0.09699654579 -0.00044086053911411474 -0.0004471731971658125
0.4015961289 -0.09699654579 -0.00047533547860401136 -0.000479482147459905
0.4069176018 -0.09699654579 -0.0005026293184558697 -0.0005093882842901073
0.4122390449 -0.09699654579 -0.0005025191615093263 -0.0005432609603410678
0.4175605178 -0.09699654579 -0.00047786745151362823 -0.0005819124607871377
0.4228819609 -0.09699654579 -0.0004532921522057878 -0.0006176877526843024
0.4282034338 -0.09699654579 -0.00043250099299575886 -0.0006510991344200861
0.4335248768 -0.09699654579 -0.0004041681896930733 -0.0006853421741832551
0.4388463497 -0.09699654579 -0.0003751785124541956 -0.0007080210187309331
0.4441677928 -0.09699654579 -0.0003429711798971944 -0.0007013499995057286
0.4494892657 -0.09699654579 -0.00030575882341386226 -0.0006949384038597803
0.4548107088 -0.09699654579 -0.00026624613210686504 -0.0006891277339581131
0.4601321816 -0.09699654579 -0.0002327333108601897 -0.0006834022328553093
0.4654536247 -0.09699654579 -0.00021171984480129557 -0.0006760845152205983
0.4707750976 -0.09699654579 -0.00020486066449294194 -0.0006640499093116745
0.4760965407 -0.09699654579 -0.0002017614760496232 -0.0006506342114606959
0.4814180136 -0.09699654579 -0.0001969298146587413 -0.0006383158140477414
0.4867394567 -0.09699654579 -0.00019289368358063968 -0.0006276906527441589
0.4920609295 -0.09699654579 -0.00019385438568936887 -0.0006308762465644469
0.4973823726 -0.09699654579 -0.00019938801784267043 -0.0006374569637825244
0.5027038455 -0.09699654579 -0.0002044574775108335 -0.0006439063878781719
0.5080252886 -0.09699654579 -0.00020474104350608335 -0.0006504161777842871
0.5133467317 -0.09699654579 -0.00020542671537497858 -0.0006597646645433561
0.5186682343 -0.09699654579 -0.00019538950064216802 -0.0006726000406322392
0.5239896774 -0.09699654579 -0.00018131987512555524 -0.0006830442874079919
0.5293111205 -0.09699654579 -0.00017297580703257194 -0.0006946143668635523
0.5346325636 -0.09699654579 -0.00015525617887955957 -0.0007018850595714756
0.5399540663 -0.09699654579 -0.0001417362485909056 -0.0007032377456783435
0.5452755094 -0.09699654579 -0.00012720042788535023 -0.0007048199744091068
0.5505969524 -0.09699654579 -0.00011332995051865535 -0.0007060193361748779
0.5559183955 -0.09699654579 -0.0001029905775342274 -0.0007018699656571222
0.5612398982 -0.09699654579 -9.768012260955849e-05 -0.0006976451775706587
0.5665613413 -0.09699654579 -9.427122765919867e-05 -0.0006929567705395655
0.5718827844 -0.09699654579 -9.438384282930944e-05 -0.0006875003166312198
0.5772042274 -0.09699654579 -9.508369567317872e-05 -0.0006838696235602219
0.5825257301 -0.09699654579 -9.951628185276331e-05 -0.0006805430729181071
0.5878471732 -0.09699654579 -0.00010448624991876903 -0.0006776776292343684
0.5931686163 -0.09699654579 -0.0001116747875816955 -0.000678142367749747
0.5984900594 -0.09699654579 -0.00011702586036611158 -0.0006787472519994277
0.6038115621 -0.09699654579 -0.00012447336606070025 -0.0006803363022059665
0.6091330051 -0.09699654579 -0.00012794072099326582 -0.0006836181151887181
0.6144544482 -0.09699654579 -0.00013299395269898159 -0.0006865914907382031
0.6197758913 -0.09699654579 -0.00013365564751359753 -0.0006887318302589039
0.625097394 -0.09699654579 -0.0001384835623644189 -0.0006912001084557209
0.6304188371 -0.09699654579 -0.00013238668687053033 -0.0006943544757394099
0.6357402802 -0.09699654579 -0.00013072627567025836 -0.0006967773211394764
0.6410617828 -0.09699654579 -0.00012626372909798142 -0.0006982527472488906
0.6463832259 -0.09699654579 -0.00012597014541543573 -0.0006969534560467601
0.651704669 -0.09699654579 -0.00012255706115240465 -0.0006947896166127229
0.6570261121 -0.09699654579 -0.00011999715287913505 -0.0006891152027540441
0.6623476148 -0.09699654579 -0.00012157482883696519 -0.0006824599322206203
0.6676690578 -0.09699654579 -0.00012287366943130492 -0.0006711712547433263
0.6729905009 -0.09699654579 -0.00012039336221932947 -0.0006599979152713997
0.678311944 -0.09699654579 -0.00011623159668193722 -0.0006460884477838711
0.6836334467 -0.09699654579 -0.00011077558191226243 -0.0006313250008429307
0.6889548898 -0.09699654579 -0.00011213010686117068 -0.0006128807757992218
0.6942763329 -0.09699654579 -0.00010991418623271748 -0.0005913142062178786
0.6995977759 -0.09699654579 -0.00010124970370444123 -0.0005674273489382457
0.7049192786 -0.09699654579 -9.53627731021006e-05 -0.0005423120222278889
0.7102407217 -0.09699654579 -9.143924366655407e-05 -0.0005154480434326181
0.7155621648 -0.09699654579 -8.162131501463324e-05 -0.00048377513747335956
0.7208836079 -0.09699654579 -7.608258905466482e-05 -0.00044488143593955095
0.7262051105 -0.09699654579 -6.495901217140958e-05 -0.0004015031474869252
0.7315265536 -0.09699654579 -4.6474043286790936e-05 -0.0003497514030960094
0.7368479967 -0.09699654579 -4.078746068851538e-05 -0.00028896647586773973
0.7421694398 -0.09699654579 -3.335097132358988e-05 -0.00022075590103118035
0.7474909425 -0.09699654579 -3.4988967883885436e-05 -0.00014437490050027318
0.7528123856 -0.09699654579 -2.9031516266761546e-05 -5.3257803279256393e-05
0.7581338286 -0.09699654579 -3.854071485084898e-05 4.4790351129938096e-05
-0.3008363545 -0.09367749095 0.00021967669176607447 0.00010357750658743055
-0.2955148816 -0.09367749095 0.00021702794963052673 0.0001516991611573294
-0.2901934385 -0.09367749095 0.00021528260807934403 0.0002097759890960369