VARIABLES = X,Y,phix,phiy
ZONE I=200,J=200,F=POINT 
-0.3008363545 -0.1003156006 -0.00020710887241595028 -0.0003926978067384729
-0.2955148816 -0.1003156006 -0.00017259951644698105 -0.0004117410431007442
-0.2901934385 -0.1003156006 -0.00023974613341549425 -0.00040982027743741205
-0.2848719656 -0.1003156006 -0.0003234321931834605 -0.00041105729837441875
-0.2795505226 -0.1003156006 -0.0004026268550198867 -0.000357162335736204
-0.2742290497 -0.1003156006 -0.0005114424975565776 -0.00029310768459555583
-0.2689076066 -0.1003156006 -0.000612820909736612 -0.00026743451481311536
-0.2635861337 -0.1003156006 -0.0006310818974369704 -0.00028519451104647045
-0.2582646906 -0.1003156006 -0.0006757058038486576 -0.0003246031170623862
-0.2529432178 -0.1003156006 -0.000719949994102247 -0.00033263185242687096
-0.2476217598 -0.1003156006 -0.0006828167335962953 -0.00030939453114332295
-0.2423003018 -0.1003156006 -0.0006280786461350849 -0.00031088186177032415
-0.2369788438 -0.1003156006 -0.0005713776677966263 -0.00028828259834567835
-0.2316573858 -0.1003156006 -0.00046684175167444904 -0.00026410113639001174
-0.2263359278 -0.1003156006 -0.0004024693105484722 -0.00020175432326887486
-0.2210144699 -0.1003156006 -0.0004110061486428939 -0.00016475329453051476
-0.2156930119 -0.1003156006 -0.0004003472168625447 -0.00013572943195470815
-0.2103715539 -0.1003156006 -0.00043155285724809204 -0.00011322644972343434
-0.2050500959 -0.1003156006 -0.000460154188625033 -8.74966264440354e-05
-0.1997286379 -0.1003156006 -0.0004865088252064637 -2.702780876563763e-05
-0.19440718 -0.1003156006 -0.0005755318789379713 5.540338410884486e-05
-0.189085722 -0.1003156006 -0.0006137715450760752 0.00012194893574714861
-0.183764264 -0.1003156006 -0.0006436427374075091 0.00016872559642047634
-0.178442806 -0.1003156006 -0.0006592668942304184 0.0002065122762220296
-0.173121348 -0.1003156006 -0.0006722530481555923 0.0001981418234725666
-0.16779989 -0.1003156006 -0.0006832355039230151 0.00017937532345715587
-0.1624784321 -0.1003156006 -0.0006963994350320815 0.00017064943476466346
-0.1571569741 -0.1003156006 -0.0007040359201435064 0.00015364347697981076
-0.1518355161 -0.1003156006 -0.0007106243623444321 0.0001292285592417844
-0.1465140581 -0.1003156006 -0.0007175701698009833 0.00010329343284175922
-0.1411926001 -0.1003156006 -0.0007121187897180963 7.76641815243491e-05
-0.1358711421 -0.1003156006 -0.0007065824825448211 6.597537625416804e-05
-0.1305496842 -0.1003156006 -0.0006945789431775626 5.4236255896139857e-05
-0.1252282262 -0.1003156006 -0.000675210676354736 4.673984111746027e-05
-0.1199067682 -0.1003156006 -0.0006720089747008925 4.5520006857644835e-05
-0.1145853102 -0.1003156006 -0.0006606062954046454 4.821811152158875e-05
-0.1092638522 -0.1003156006 -0.0006547191769127461 6.164558398260561e-05
-0.1039423943 -0.1003156006 -0.0006523445094917591 7.027050799993387e-05
-0.09862093627 -0.1003156006 -0.000681116753407724 6.948812084294006e-05
-0.09329947084 -0.1003156006 -0.0007248757423310959 6.669179706281469e-05
-0.08797801286 -0.1003156006 -0.000761104942225048 6.408642387868882e-05
-0.08265655488 -0.1003156006 -0.0007980695222797882 5.8009035610180725e-05
-0.0773350969 -0.1003156006 -0.0008158835538321071 1.1881965853047887e-05
-0.07201363891 -0.1003156006 -0.0008433474799496837 -3.346218640503443e-05
-0.06669218093 -0.1003156006 -0.000862210851816339 -7.875949762373312e-05
-0.06137072667 -0.1003156006 -0.000886550141720623 -0.00013126933635990468
-0.05604926869 -0.1003156006 -0.0008672713117903369 -0.00016868427340233276
-0.05072781071 -0.1003156006 -0.0008563753074788808 -0.00020116560273855425
-0.045406349 -0.1003156006 -0.0008353732657886997 -0.00023347934780871426
-0.04008489102 -0.1003156006 -0.0008096626529801882 -0.00026672626070649535
-0.03476343304 -0.1003156006 -0.000787472418365103 -0.00028734760265122653
-0.02944197692 -0.1003156006 -0.00077600362171001 -0.00027867985460631306
-0.02412051894 -0.1003156006 -0.0007556396487829188 -0.00026902116229235727
-0.01879905909 -0.1003156006 -0.0007373877369309497 -0.00025769475623052746
-0.01347760204 -0.1003156006 -0.0007186740062018358 -0.0002480012191577806
-0.00815614406 -0.1003156006 -0.0007116890969289568 -0.00023741156939213832
-0.00283468538 -0.1003156006 -0.0007055960514538797 -0.00022537839355209853
0.002486772602 -0.1003156006 -0.0007099853864752527 -0.00021208660792299266
0.007808230817 -0.1003156006 -0.000724457223485514 -0.00019875359226433615
0.0131296888 -0.1003156006 -0.0007141455183377277 -0.00018655098011817426
0.01845114678 -0.1003156006 -0.0007252199014453497 -0.0001846477724245069
0.02377260476 -0.1003156006 -0.0007335398602732157 -0.00019083880202294486
0.02909406275 -0.1003156006 -0.0007469534161622547 -0.00019878796631150975
0.03441552073 -0.1003156006 -0.0007519620882153017 -0.00020655081237619524
0.03973697871 -0.1003156006 -0.0007676067782081113 -0.00021297118367033765
0.04505843669 -0.1003156006 -0.0007679236636769187 -0.00020896689119749546
0.05037989467 -0.1003156006 -0.0007419219080151839 -0.00018458590264644405
0.05570135266 -0.1003156006 -0.0007095654018429759 -0.0001591267569476515
0.06102281436 -0.1003156006 -0.0006816523192491618 -0.00013312288385420839
0.06634426862 -0.1003156006 -0.0006521012878908383 -0.00010845628172744185
0.0716657266 -0.1003156006 -0.0006212153791068091 -8.438226580350068e-05
0.07698718458 -0.1003156006 -0.0006681582737031947 -6.426481971156709e-05
0.08230864257 -0.1003156006 -0.0007081977759103286 -4.402869222925294e-05
0.08763010055 -0.1003156006 -0.0007628832656968995 -2.4188192614326188e-05
0.09295155853 -0.1003156006 -0.0008042745189236645 -4.141520470347936e-06
0.09827301651 -0.1003156006 -0.0008476651015558615 1.5670826614854864e-05
0.1035944745 -0.1003156006 -0.0009045686990366825 1.7998542654315044e-05
0.1089159325 -0.1003156006 -0.0009774851900551734 -1.7868070571826536e-05
0.1142373979 -0.1003156006 -0.0010581159675433867 -5.363822304859714e-05
0.1195588559 -0.1003156006 -0.0011214190727949743 -8.478768162936947e-05
0.1248803139 -0.1003156006 -0.0011846370253681825 -0.00011781886340297692
0.1302017719 -0.1003156006 -0.001258919725133593 -0.00015167976999500902
0.1355232298 -0.1003156006 -0.0012676302438667487 -0.00017369957141389057
0.1408446878 -0.1003156006 -0.0012058366599297058 -0.0001862077603424173
0.1461661458 -0.1003156006 -0.0011609033788578004 -0.00019966809696212077
0.1514876038 -0.1003156006 -0.0011041477921202615 -0.0002130719204957311
0.1568090618 -0.1003156006 -0.0010564437304040326 -0.00022666283246877586
0.1621305197 -0.1003156006 -0.0010103868473731984 -0.00024011208207479857
0.1674519777 -0.1003156006 -0.0009815464858376106 -0.0002479205605246959
0.1727734357 -0.1003156006 -0.0009373048426673351 -0.0002541890064763669
0.1780948937 -0.1003156006 -0.000909967761244279 -0.00026075338537628553
0.1834163517 -0.1003156006 -0.0008727485688975204 -0.00026737465724307763
0.1887378097 -0.1003156006 -0.0008354026468780561 -0.00026530175556921083
0.1940592676 -0.1003156006 -0.0008130408005664154 -0.0002455458296100522
0.1993807256 -0.1003156006 -0.0007944333990471186 -0.00021736925508155223
0.2047021836 -0.1003156006 -0.0007839981331740679 -0.00018727882049469872
0.2100236416 -0.1003156006 -0.0007658135055716 -0.00015669502425653774
0.2153450996 -0.1003156006 -0.0007566640093895174 -0.00012403460323296534
0.2206665576 -0.1003156006 -0.000753875349294714 -9.255971415271913e-05
0.2259880155 -0.1003156006 -0.0007363893488540276 -6.0846104984423586e-05
0.2313094735 -0.1003156006 -0.0007387491770437617 1.2800132465723223e-05
0.2366309315 -0.1003156006 -0.0007452193360931633 7.577462989559792e-05
0.2419523895 -0.1003156006 -0.0007401119654998181 0.00012793126071407432
0.2472738475 -0.1003156006 -0.0007459330843422019 0.00017753526490288577
0.2525953054 -0.1003156006 -0.0007447417042774076 0.00021950931410300695
0.2579167783 -0.1003156006 -0.0007507680326470721 0.00026149245378756243
0.2632382214 -0.1003156006 -0.0008139754454276678 0.0002815448921032934
0.2685596943 -0.1003156006 -0.0008809672619820977 0.00029708191792330766
0.2738811374 -0.1003156006 -0.0009603436138717595 0.00031668257090214933
0.2792026103 -0.1003156006 -0.0010362678908835612 0.00033326592493982033
0.2845240533 -0.1003156006 -0.0011026508775195773 0.0003430269671239192
0.2898455262 -0.1003156006 -0.001170577655716606 0.00035359536413505485
0.2951669693 -0.1003156006 -0.0012055851921031007 0.00026405534597694096
0.3004884422 -0.1003156006 -0.001228272854061607 0.00015920230250297758
0.3058098853 -0.1003156006 -0.0012574557553930484 6.596484992057792e-05
0.3111313581 -0.1003156006 -0.0012815326634889638 -2.7902435912970933e-05
0.3164528012 -0.1003156006 -0.0013002038181695306 -0.00012158156915167631
0.3217742741 -0.1003156006 -0.0013270932537783873 -0.00021363743047311077
0.3270957172 -0.1003156006 -0.0012253326234803377 -0.0002728790226180716
0.3324171901 -0.1003156006 -0.0011302037793421637 -0.0003298831887174856
0.3377386332 -0.1003156006 -0.001033468155953506 -0.0003878307189855797
0.343060106 -0.1003156006 -0.0009344662405973312 -0.0004461494313019889
0.3483815491 -0.1003156006 -0.000849594501552836 -0.0004999001805291286
0.353703022 -0.1003156006 -0.0007638746271040149 -0.0005210031845557961
0.3590244651 -0.1003156006 -0.0006549974272402341 -0.0004708914164432539
0.364345938 -0.1003156006 -0.000549938215646922 -0.00041961458660804416
0.369667381 -0.1003156006 -0.0004551847282885834 -0.0003766901444915347
0.3749888539 -0.1003156006 -0.00036035817334023753 -0.00033233337990057875
0.380310297 -0.1003156006 -0.0002588595166179188 -0.000286893697584823
0.3856317699 -0.1003156006 -0.00023100120773603266 -0.00021068234180326027
0.390953213 -0.1003156006 -0.0002155368491990297 -0.00013472341954451456
0.3962746859 -0.1003156006 -0.00020230017181616938 -6.028486335490136e-05
0.4015961289 -0.1003156006 -0.0001860983699384423 1.47509954032597e-05
0.4069176018 -0.1003156006 -0.00017117789133842172 9.020629118626325e-05
0.4122390449 -0.1003156006 -0.00017654637202165355 0.00014083700095336179
0.4175605178 -0.1003156006 -0.00020699927559212345 0.00016458647027946913
0.4228819609 -0.1003156006 -0.0002469527211366536 0.00019031282023990198
0.4282034338 -0.1003156006 -0.00028528376060053703 0.0002154345839747531
0.4335248768 -0.1003156006 -0.00032196929473489076 0.00023805362939631234
0.4388463497 -0.1003156006 -0.00033684018743698426 0.00024862657850917194
0.4441677928 -0.1003156006 -0.0003562520965893635 0.0002240571657684706
0.4494892657 -0.1003156006 -0.00035829865395969407 0.0001986092920151253
0.4548107088 -0.1003156006 -0.00036284809663194917 0.00017840357077442216
0.4601321816 -0.1003156006 -0.0003674607401694288 0.00015497769095921694
0.4654536247 -0.1003156006 -0.000359602651903035 0.00013193653651184011
0.4707750976 -0.1003156006 -0.0003176203430232761 0.0001086954907543815
0.4760965407 -0.1003156006 -0.0002715231888468965 8.855780481506062e-05
0.4814180136 -0.1003156006 -0.00023098454331156408 6.799052807443432e-05
0.4867394567 -0.1003156006 -0.00018750548749441875 4.81655883462887e-05
0.4920609295 -0.1003156006 -0.00012895267042396222 4.4139511962303374e-05
0.4973823726 -0.1003156006 -5.335725172142229e-05 4.2834427128642395e-05
0.5027038455 -0.1003156006 1.402485854177928e-05 4.27517471954987e-05
0.5080252886 -0.1003156006 8.685451229394841e-05 4.19469583667736e-05
0.5133467317 -0.1003156006 0.00014631429489401476 5.456317617082715e-05
0.5186682343 -0.1003156006 0.00021375001674108244 7.941135612246727e-05
0.5239896774 -0.1003156006 0.00028359923599553176 0.00010437041256482667
0.5293111205 -0.1003156006 0.0003460146180896485 0.00012957591442586797
0.5346325636 -0.1003156006 0.0004037965632796729 0.00015911956190755566
0.5399540663 -0.1003156006 0.000470181616025614 0.0001991935115555964
0.5452755094 -0.1003156006 0.0005198117157031005 0.00024032548216485728
0.5505969524 -0.1003156006 0.0005797315152379527 0.00027975687320909285
0.5559183955 -0.1003156006 0.0006360011803051727 0.0003233645843362395
0.5612398982 -0.1003156006 0.0006788638437846281 0.00036993362855582856
0.5665613413 -0.1003156006 0.0007237001778364182 0.0004158277500501149
0.5718827844 -0.1003156006 0.0007732653893689134 0.00046267739927334273
0.5772042274 -0.1003156006 0.0008168694610708167 0.0005112437282374772
0.5825257301 -0.1003156006 0.0008626306451309163 0.0005595732107723503
0.5878471732 -0.1003156006 0.00090168944224437 0.0006063427960238565
0.5931686163 -0.1003156006 0.0009362925912086338 0.00065083967539933
0.5984900594 -0.1003156006 0.0009807599060156784 0.0006969436279967254
0.6038115621 -0.1003156006 0.0010208668596756575 0.0007353692281151136
0.6091330051 -0.1003156006 0.0010592877484474422 0.0007727590210136731
0.6144544482 -0.1003156006 0.0011016288939925858 0.0008063262960263122
0.6197758913 -0.1003156006 0.001140888968135668 0.0008373847906462886
0.625097394 -0.1003156006 0.0011861147710683676 0.0008653301751288525
0.6304188371 -0.1003156006 0.0012484784166032195 0.0008875263171085999
0.6357402802 -0.1003156006 0.001302395329164439 0.0009095151771855935
0.6410617828 -0.1003156006 0.0013644164850564423 0.0009274448462378836
0.6463832259 -0.1003156006 0.00142056127021599 0.0009457606067664339
0.651704669 -0.1003156006 0.0014918138650459698 0.0009632190875482218
0.6570261121 -0.1003156006 0.0015657864871055417 0.0009778704479649724
0.6623476148 -0.1003156006 0.0016457548550645284 0.0009905974568246816
0.6676690578 -0.1003156006 0.0017273035068734457 0.0010009649561366454
0.6729905009 -0.1003156006 0.0018370179655779208 0.001012270907764425
0.678311944 -0.1003156006 0.0019474103442230187 0.001025575118551231
0.6836334467 -0.1003156006 0.0020756029376560858 0.0010379535722451199
0.6889548898 -0.1003156006 0.002208336199389045 0.0010453007011075233
0.6942763329 -0.1003156006 0.0023368644678100456 0.001050005820534446
0.6995977759 -0.1003156006 0.002492537275440674 0.0010547647386290754
0.7049192786 -0.1003156006 0.0026594477169317042 0.0010636829484054352
0.7102407217 -0.1003156006 0.0028536441009986966 0.0010742120763677617
0.7155621648 -0.1003156006 0.003059423862370829 0.0010900013538945644
0.7208836079 -0.1003156006 0.0032869106747128443 0.0011134248239543436
0.7262051105 -0.1003156006 0.003526509138012984 0.0011420496839828385
0.7315265536 -0.1003156006 0.0037981499230803632 0.0011768494415308785
0.7368479967 -0.1003156006 0.004114273984409066 0.0012383542229724952
0.7421694398 -0.1003156006 0.004451291499627604 0.0013174571093650352
0.7474909425 -0.1003156006 0.004803226113746411 0.0014224820004207026
0.7528123856 -0.1003156006 0.0052012723860695165 0.001557077445932007
0.7581338286 -0.1003156006 0.0056118525052470695 0.0017249020557627889
-0.3008363545 -0.09699654579 -0.000323322830439987 -0.0003577708152140367
-0.2955148816 -0.09699654579 -0.00027761028174374223 -0.00036848544272340627
-0.2901934385 -0.09699654579 -0.0003003038703491084 -0.00041627838428370546
-0.2848719656 -0.09699654579 -0.00038155316893607593 -0.00039525376216291707
-0.2795505226 -0.09699654579 -0.0004664632234286801 -0.0003274504827815028
-0.2742290497 -0.09699654579 -0.0005699741167207696 -0.00028301145555341184
-0.2689076066 -0.09699654579 -0.0006619668709871969 -0.0002755069728377541
-0.2635861337 -0.09699654579 -0.0007845174225459608 -0.00031765725949126924
-0.2582646906 -0.09699654579 -0.00086280815408475 -0.0003977596377650901
-0.2529432178 -0.09699654579 -0.0008260080488885416 -0.00036509937363859795
-0.2476217598 -0.09699654579 -0.0007501277830905778 -0.0003428525774632183
-0.2423003018 -0.09699654579 -0.0006792909383172645 -0.0003470898154725406
-0.2369788438 -0.09699654579 -0.0005638663520578293 -0.00035129019019078254
-0.2316573858 -0.09699654579 -0.00047274606852950734 -0.0003016565992813006
-0.2263359278 -0.09699654579 -0.0003022326531504183 -0.00022825749118550372
-0.2210144699 -0.09699654579 -0.0002621920243802232 -0.0001927012250417272
-0.2156930119 -0.09699654579 -0.0002870143180708283 -0.00016977627531755799
-0.2103715539 -0.09699654579 -0.00029467441338152224 -0.00012261155111906757
-0.2050500959 -0.09699654579 -0.0003264113183396432 -5.771998896424222e-05
-0.1997286379 -0.09699654579 -0.0004154856867217464 2.4902035748396722e-05
-0.19440718 -0.09699654579 -0.0005174995052656321 0.00010515039615286491
-0.189085722 -0.09699654579 -0.0005501262799936826 0.00014600165609329933
-0.183764264 -0.09699654579 -0.0005622454469997615 0.00017475103271494407
-0.178442806 -0.09699654579 -0.0005770446500648117 0.000196434113375426
-0.173121348 -0.09699654579 -0.0005910748658274382 0.00019294677235569868
-0.16779989 -0.09699654579 -0.0006054871837594641 0.0001899719268080965
-0.1624784321 -0.09699654579 -0.000621305988654575 0.00018939995073913445
-0.1571569741 -0.09699654579 -0.0006254838327223249 0.0001488439313076834
-0.1518355161 -0.09699654579 -0.0006309377693442951 0.00011042695938292265
-0.1465140581 -0.09699654579 -0.0006411951921699748 6.53255423728285e-05
-0.1411926001 -0.09699654579 -0.0006347556631106591 2.9155591886744536e-05
-0.1358711421 -0.09699654579 -0.0006170051986046064 2.2506136760980485e-05
-0.1305496842 -0.09699654579 -0.0005955847316616601 1.8164863609270326e-05
-0.1252282262 -0.09699654579 -0.0005795950785932213 2.429884703676169e-05
-0.1199067682 -0.09699654579 -0.0005827090398442577 4.13568182485153e-05
-0.1145853102 -0.09699654579 -0.0005882540268727929 6.421226756816495e-05
-0.1092638522 -0.09699654579 -0.0006000258705628823 8.519365613887722e-05
-0.1039423943 -0.09699654579 -0.0006109651396222955 0.00010282305185122191
-0.09862093627 -0.09699654579 -0.0006647715406780736 9.882707357302481e-05
-0.09329947084 -0.09699654579 -0.0007190781875528697 9.424656993422379e-05
-0.08797801286 -0.09699654579 -0.0007656359786344357 8.89264154841918e-05
-0.08265655488 -0.09699654579 -0.0008231903593349055 8.180779108475928e-05
-0.0773350969 -0.09699654579 -0.0008355719057772784 2.7656555238881498e-05
-0.07201363891 -0.09699654579 -0.0008648711278434085 -3.131505048825865e-05
-0.06669218093 -0.09699654579 -0.0008929966241982824 -9.012353473639579e-05
-0.06137072667 -0.09699654579 -0.0009306733423584794 -0.00014818602296673222
-0.05604926869 -0.09699654579 -0.0009209926700246898 -0.00018608529684198763
-0.05072781071 -0.09699654579 -0.0009049451061488183 -0.0002177342086847971
-0.045406349 -0.09699654579 -0.0008886169991034705 -0.0002493925526068438
-0.04008489102 -0.09699654579 -0.0008714229561537654 -0.00028110863806142576
-0.03476343304 -0.09699654579 -0.0008548436171780018 -0.0002992727219839191
-0.02944197692 -0.09699654579 -0.0008542052635699034 -0.0002860291117989932
-0.02412051894 -0.09699654579 -0.0008296127097913844 -0.0002726595564411324
-0.01879905909 -0.09699654579 -0.0008272729782136572 -0.00025949445130503916
-0.01347760204 -0.09699654579 -0.0008192765535725867 -0.0002465421093082411
-0.00815614406 -0.09699654579 -0.0008137658623718774 -0.0002328837443670109
-0.00283468538 -0.09699654579 -0.0008191248227747692 -0.000218256790956377
0.002486772602 -0.09699654579 -0.0008352028604116441 -0.0002031639791402196
0.007808230817 -0.09699654579 -0.0008449760402396491 -0.00018789714837566074
0.0131296888 -0.09699654579 -0.0008563156564325428 -0.00017309570546783796
0.01845114678 -0.09699654579 -0.0008592160286348703 -0.00017292032596883674
0.02377260476 -0.09699654579 -0.0008745256776270581 -0.00018314188671050887
0.02909406275 -0.09699654579 -0.0008865145277687384 -0.0001947162847033531
0.03441552073 -0.09699654579 -0.0009009581173128261 -0.00020651623260789934
0.03973697871 -0.09699654579 -0.0009078797238890253 -0.0002167653951141421
0.04505843669 -0.09699654579 -0.0009067186805563803 -0.00021449329635140255
0.05037989467 -0.09699654579 -0.000870106717314329 -0.0001881120304586506
0.05570135266 -0.09699654579 -0.0008405600445318477 -0.00016182509728010722
0.06102281436 -0.09699654579 -0.0008028077661617738 -0.0001352464448498961
0.06634426862 -0.09699654579 -0.0007623237826706772 -0.00010885008071194694
0.0716657266 -0.09699654579 -0.0007320734505251924 -8.255208993901673e-05
0.07698718458 -0.09699654579 -0.0007716107999285042 -5.656334227215269e-05
0.08230864257 -0.09699654579 -0.000826907388902357 -3.032266468190774e-05
0.08763010055 -0.09699654579 -0.000883713981591994 -6.4623239671982914e-06
0.09295155853 -0.09699654579 -0.0009317198090230415 1.7788909530556217e-05
0.09827301651 -0.09699654579 -0.0009847493306574817 4.219059860159781e-05
0.1035944745 -0.09699654579 -0.001045511361494015 4.323367512444742e-05
0.1089159325 -0.09699654579 -0.001139526528069115 -7.42255915778988e-07
0.1142373979 -0.09699654579 -0.0012260567527083864 -4.291514613316541e-05
0.1195588559 -0.09699654579 -0.0013110041326149303 -8.396856719766578e-05
0.1248803139 -0.09699654579 -0.0013983488690863396 -0.0001251255862119051
0.1302017719 -0.09699654579 -0.001486572140932208 -0.0001671643464326654
0.1355232298 -0.09699654579 -0.0014811482655877803 -0.00019567165868615135
0.1408446878 -0.09699654579 -0.0014165156525163215 -0.00020957408864354096
0.1461661458 -0.09699654579 -0.001357877279300451 -0.0002233576516004041
0.1514876038 -0.09699654579 -0.0012952999908451206 -0.00023530268353073446
0.1568090618 -0.09699654579 -0.001234481762428831 -0.00024697398997877435
0.1621305197 -0.09699654579 -0.001175025497363636 -0.0002590108712450756
0.1674519777 -0.09699654579 -0.0011311115478085036 -0.00024987761482542367
0.1727734357 -0.09699654579 -0.0010818251022819297 -0.00023013895167846817
0.1780948937 -0.09699654579 -0.0010361058254191005 -0.0001925942339497765
0.1834163517 -0.09699654579 -0.0009901153269965147 -0.00016147335829128887
0.1887378097 -0.09699654579 -0.0009498176881374391 -0.00016673497796669646
0.1940592676 -0.09699654579 -0.0009014577456288399 -0.00017168591106649054
0.1993807256 -0.09699654579 -0.0008720844636551966 -0.00017813425641157593
0.2047021836 -0.09699654579 -0.0008450282794083441 -0.00018548068387706519
0.2100236416 -0.09699654579 -0.0008235417168528445 -0.00020000277287277068
0.2153450996 -0.09699654579 -0.0008005909923133984 -0.00021500286396160573
0.2206665576 -0.09699654579 -0.0007651805588364419 -0.00023059032761037803
0.2259880155 -0.09699654579 -0.0007383869539209567 -0.0002458266242118938
0.2313094735 -0.09699654579 -0.0007305498024971129 -0.00018127767411856742
0.2366309315 -0.09699654579 -0.0007405980278591437 -8.009778848268007e-05
0.2419523895 -0.09699654579 -0.0007355477970714352 2.102181570219721e-05
0.2472738475 -0.09699654579 -0.0007439766172315407 0.000122492198205272
0.2525953054 -0.09699654579 -0.0007435221954324967 0.00020511099584237373
0.2579167783 -0.09699654579 -0.0007434525214905793 0.0002711679155728876
0.2632382214 -0.09699654579 -0.0008185327023923853 0.0003007446478846537
0.2685596943 -0.09699654579 -0.0009145590863476729 0.00032378637277634235
0.2738811374 -0.09699654579 -0.0009995107596684866 0.00034543713627896915
0.2792026103 -0.09699654579 -0.0010686212505753234 0.0003664056393833603
0.2845240533 -0.09699654579 -0.0011442337901610257 0.00038641538120590813
0.2898455262 -0.09699654579 -0.0012244017472110174 0.0004078061190579885
0.2951669693 -0.09699654579 -0.0012614137586653641 0.00030699342767888675
0.3004884422 -0.09699654579 -0.0012831839259762495 0.0002002095034050061
0.3058098853 -0.09699654579 -0.0013137859734081688 8.985380376805612e-05
0.3111313581 -0.09699654579 -0.0013397801421044847 -2.0831303898334023e-05
0.3164528012 -0.09699654579 -0.001372549485359932 -0.00012772282707686544
0.3217742741 -0.09699654579 -0.0013889881991857272 -0.00022408396047038858
0.3270957172 -0.09699654579 -0.0012752015603205355 -0.0002972518052996563
0.3324171901 -0.09699654579 -0.0011642050687501347 -0.00037038900659842156
0.3377386332 -0.09699654579 -0.001062391224391355 -0.0004394327924026311
0.343060106 -0.09699654579 -0.00095901622646087 -0.0005035883713008278
0.3483815491 -0.09699654579 -0.0008498976474232157 -0.0005696318101309268
0.353703022 -0.09699654579 -0.0007372424308508138 -0.000592424445217214
0.3590244651 -0.09699654579 -0.0006169142217019285 -0.0005341700743225629
0.364345938 -0.09699654579 -0.0004981422830598328 -0.0004808989635371378
0.369667381 -0.09699654579 -0.0003927361659701072 -0.00042680602388202364
0.3749888539 -0.09699654579 -0.00027536749628214607 -0.00037240624856619094
0.380310297 -0.09699654579 -0.00016920955010018727 -0.0003221101819529383
0.3856317699 -0.09699654579 -0.00014235118994385874 -0.0002440216416407774
0.390953213 -0.09699654579 -0.00013475910005184664 -0.0001555639300386911
0.3962746859 -0.09699654579 -0.00012956655187589398 -6.227061997765636e-05
0.4015961289 -0.09699654579 -0.00011681658022132909 2.3130751216893613e-05
0.4069176018 -0.09699654579 -0.0001066357447186508 0.00010331060390348028
0.4122390449 -0.09699654579 -0.00012453697838753233 0.00015814210615972183
0.4175605178 -0.09699654579 -0.00017475993539881328 0.00018243932816722008
0.4228819609 -0.09699654579 -0.00022251571780184886 0.00020392606985626837
0.4282034338 -0.09699654579 -0.0002492225929478129 0.00022592379782970508
0.4335248768 -0.09699654579 -0.0002955227882258916 0.0002477111440903674
0.4388463497 -0.09699654579 -0.00032127013813971415 0.000251139775512498
0.4441677928 -0.09699654579 -0.0003398307915233527 0.00022007174832609747
0.4494892657 -0.09699654579 -0.0003513683435281896 0.00019047032913858345
0.4548107088 -0.09699654579 -0.00036433634676367695 0.00016214571446051304
0.4601321816 -0.09699654579 -0.00037762880161946343 0.00013359458595425968
0.4654536247 -0.09699654579 -0.00036128528688390377 0.00010976786268527784
0.4707750976 -0.09699654579 -0.00031585217087559144 8.464446222385495e-05
0.4760965407 -0.09699654579 -0.00027222020038829465 5.5919440613571356e-05
0.4814180136 -0.09699654579 -0.00022262852415415232 3.054855292439355e-05
0.4867394567 -0.09699654579 -0.00018893522641281313 6.15603326398552e-06
0.4920609295 -0.09699654579 -0.00011321002143019796 9.608278679957818e-07
0.4973823726 -0.09699654579 -4.677963497714506e-05 -7.921683266105432e-08
0.5027038455 -0.09699654579 2.5422695977012622e-05 9.028403998266418e-07
0.5080252886 -0.09699654579 9.540767579277903e-05 4.7555674924494103e-07
0.5133467317 -0.09699654579 0.00015998459047274178 1.2269950961999932e-05
0.5186682343 -0.09699654579 0.0002369114065894144 4.032107230275474e-05
0.5239896774 -0.09699654579 0.0003018183627614019 6.498320539147772e-05
0.5293111205 -0.09699654579 0.0003710110447149025 9.186694075606886e-05
0.5346325636 -0.09699654579 0.0004343498718740193 0.00012542900575800292
0.5399540663 -0.09699654579 0.0004902131907010826 0.00016903559035330256
0.5452755094 -0.09699654579 0.0005476725328307029 0.00021019177025469356
0.5505969524 -0.09699654579 0.0006044703535309147 0.0002526467965936414
0.5559183955 -0.09699654579 0.0006581948295803113 0.0002996274977622244
0.5612398982 -0.09699654579 0.0007073631717644242 0.0003451159436469028
0.5665613413 -0.09699654579 0.0007577645167895044 0.00039174647352784866
0.5718827844 -0.09699654579 0.000798746968356612 0.0004410451755260219
0.5772042274 -0.09699654579 0.0008404336124919833 0.0004890799948200759
0.5825257301 -0.09699654579 0.0008778496130775511 0.0005386544533613056
0.5878471732 -0.09699654579 0.0009277128453817374 0.000586708154703364
0.5931686163 -0.09699654579 0.0009671693404371962 0.0006310761705612813
0.5984900594 -0.09699654579 0.0010018559046692168 0.0006757988448569028
0.6038115621 -0.09699654579 0.0010408222199630441 0.0007144998590475294
0.6091330051 -0.09699654579 0.0010701679690921367 0.0007493135150579894
0.6144544482 -0.09699654579 0.0011049855574410735 0.0007837473739395008
0.6197758913 -0.09699654579 0.0011494486646239728 0.0008096231362614762
0.625097394 -0.09699654579 0.0011899878736183066 0.0008352473368477873
0.6304188371 -0.09699654579 0.0012524601436703006 0.0008567395471095626
0.6357402802 -0.09699654579 0.0013043186838758024 0.0008740192879123765
0.6410617828 -0.09699654579 0.0013473074205647727 0.0008899379517834812
0.6463832259 -0.09699654579 0.0014170247852253893 0.0009033886228866379
0.651704669 -0.09699654579 0.0014847811401453909 0.0009165884242437657
0.6570261121 -0.09699654579 0.0015535833119448954 0.0009260377107540799
0.6623476148 -0.09699654579 0.0016341932560278874 0.0009343362725808979
0.6676690578 -0.09699654579 0.0017180028959200681 0.0009427347578922702
0.6729905009 -0.09699654579 0.0018216006110047638 0.0009501163476310375
0.678311944 -0.09699654579 0.0019334529311094784 0.0009548746438733533
0.6836334467 -0.09699654579 0.0020611665285113112 0.000959419706192258
0.6889548898 -0.09699654579 0.002192135172350544 0.0009620867914508702
0.6942763329 -0.09699654579 0.0023340683660669414 0.0009589370131225326
0.6995977759 -0.09699654579 0.002476691794601444 0.000954619674426945
0.7049192786 -0.09699654579 0.0026464979302926357 0.0009549249258417776
0.7102407217 -0.09699654579 0.0028404618620965385 0.0009572451178719953
0.7155621648 -0.09699654579 0.0030539871715497616 0.000960092394669095
0.7208836079 -0.09699654579 0.00329374748015391 0.0009635939404399394
0.7262051105 -0.09699654579 0.0035456927481628503 0.0009745708983964337
0.7315265536 -0.09699654579 0.0038165387361556733 0.0009898654721102204
0.7368479967 -0.09699654579 0.004132256953217529 0.0010306514533354244
0.7421694398 -0.09699654579 0.004490724245095337 0.0010962726099968518
0.7474909425 -0.09699654579 0.004875178106604573 0.0011791791897880013
0.7528123856 -0.09699654579 0.005285608270093268 0.0012963457025798274
0.7581338286 -0.09699654579 0.005722452946483246 0.0014506959859705473
-0.3008363545 -0.09367749095 -0.00045210069227590076 -0.0003115407467357617
-0.2955148816 -0.09367749095 -0.00044218090330616443 -0.0003195475850218663
-0.2901934385 -0.09367749095 -0.0003925513135777306 -0.00040210417698563895
-0.2848719656 -0.09367749095 -0.000439427797330135 -0.0003631727312388828
-0.2795505226 -0.09367749095 -0.0005324019076867329 -0.0002980986311045775
-0.2742290497 -0.09367749095 -0.0006232102874150054 -0.00028543010990931855
-0.2689076066 -0.09367749095 -0.0007433759457449444 -0.0002999381681639505