VARIABLES = X,Y,phix,phiy
ZONE I=200,J=200,F=POINT 
-0.3008363545 -0.1003156006 -0.0012584724271663484 4.169230262469178e-05
-0.2955148816 -0.1003156006 -0.001103106099442304 4.0271697023720786e-05
-0.2901934385 -0.1003156006 -0.0011375805688961912 5.7647487215962486e-05
-0.2848719656 -0.1003156006 -0.0011929255628995291 8.183805425896077e-05
-0.2795505226 -0.1003156006 -0.001234887082866164 0.00019019429010348833
-0.2742290497 -0.1003156006 -0.0013183050479812267 0.00034459390518133795
-0.2689076066 -0.1003156006 -0.0013579069190271993 0.0004340519814937857
-0.2635861337 -0.1003156006 -0.0013770285092581018 0.00043332472063629447
-0.2582646906 -0.1003156006 -0.0014548576953724189 0.00034842089453465436
-0.2529432178 -0.1003156006 -0.0015472468939138938 0.0003044303538016414
-0.2476217598 -0.1003156006 -0.0015441667022964942 0.00036792836615338783
-0.2423003018 -0.1003156006 -0.0015216633905657802 0.0003912803490704902
-0.2369788438 -0.1003156006 -0.0015298116871818531 0.0003851818176148157
-0.2316573858 -0.1003156006 -0.0015203087610760318 0.00036904848756267526
-0.2263359278 -0.1003156006 -0.0015711935987839203 0.0003873746911684872
-0.2210144699 -0.1003156006 -0.0015587236091131826 0.0004086415234477523
-0.2156930119 -0.1003156006 -0.0015056430343443484 0.0004118452907382883
-0.2103715539 -0.1003156006 -0.0014734025666423745 0.0003962312510122205
-0.2050500959 -0.1003156006 -0.0014298379320843522 0.0003416788564892584
-0.1997286379 -0.1003156006 -0.0013910236343709467 0.0002808752883244526
-0.19440718 -0.1003156006 -0.0013823976142874539 0.0002317427622215262
-0.189085722 -0.1003156006 -0.0013728535915440302 0.00025253772937101085
-0.183764264 -0.1003156006 -0.0013571286140367064 0.00027157308600630835
-0.178442806 -0.1003156006 -0.0013231458793782453 0.00029539626825740475
-0.173121348 -0.1003156006 -0.0012426099977275184 0.00029337483692547955
-0.16779989 -0.1003156006 -0.0011485811153254721 0.0002821418264895204
-0.1624784321 -0.1003156006 -0.001061863404103917 0.00026979872905834914
-0.1571569741 -0.1003156006 -0.0009919373627119445 0.00026479297207977184
-0.1518355161 -0.1003156006 -0.0009448245571012879 0.0002613018931937202
-0.1465140581 -0.1003156006 -0.0008950479320660377 0.0002582790485796034
-0.1411926001 -0.1003156006 -0.0008432410767918101 0.0002544555703123351
-0.1358711421 -0.1003156006 -0.0007899205969491345 0.0002548818420037814
-0.1305496842 -0.1003156006 -0.0007343578892293899 0.00025472584003764656
-0.1252282262 -0.1003156006 -0.0006738147643383805 0.0002529683975351168
-0.1199067682 -0.1003156006 -0.0006367273940179335 0.00027708402512699427
-0.1145853102 -0.1003156006 -0.0005955516949377809 0.00030839535461159415
-0.1092638522 -0.1003156006 -0.000557264470571126 0.00035128325253804677
-0.1039423943 -0.1003156006 -0.0005225736389456285 0.0003906731539691805
-0.09862093627 -0.1003156006 -0.0005207315349274724 0.0003856284254395903
-0.09329947084 -0.1003156006 -0.0005223743872626293 0.00038310807142652984
-0.08797801286 -0.1003156006 -0.0005208811742757978 0.00038049751931050507
-0.08265655488 -0.1003156006 -0.0005294764536123914 0.00037704958531089607
-0.0773350969 -0.1003156006 -0.0005442423392841811 0.0003573961060000484
-0.07201363891 -0.1003156006 -0.0005690096919657177 0.000338207708778161
-0.06669218093 -0.1003156006 -0.0005832656226082585 0.00031870519836075807
-0.06137072667 -0.1003156006 -0.0006045021525293414 0.00029943677735368406
-0.05604926869 -0.1003156006 -0.0006211566406883787 0.00028716047540493857
-0.05072781071 -0.1003156006 -0.0006367590414696231 0.0002763915656460868
-0.045406349 -0.1003156006 -0.0006460969448937591 0.0002664019829334488
-0.04008489102 -0.1003156006 -0.0006665447701924265 0.00025474276548758035
-0.03476343304 -0.1003156006 -0.0006830523525273888 0.00024257070275234962
-0.02944197692 -0.1003156006 -0.0006938280640523309 0.00022734683026618313
-0.02412051894 -0.1003156006 -0.0007131778453678539 0.0002112809084275853
-0.01879905909 -0.1003156006 -0.0007392920063992864 0.00019354186153690885
-0.01347760204 -0.1003156006 -0.0007478794344932578 0.0001777653152783192
-0.00815614406 -0.1003156006 -0.0007519847454760999 0.00016263511767626902
-0.00283468538 -0.1003156006 -0.0007385698565476678 0.00014823969445229378
0.002486772602 -0.1003156006 -0.0007217219192947269 0.00013268526472320756
0.007808230817 -0.1003156006 -0.0007133425702596333 0.00011738586292304877
0.0131296888 -0.1003156006 -0.0006930613393198878 0.00010262595747967072
0.01845114678 -0.1003156006 -0.0006958074185107795 0.00011631913376760998
0.02377260476 -0.1003156006 -0.0006948050800959338 0.0001529231359794925
0.02909406275 -0.1003156006 -0.0006941924926947068 0.0001918387410305329
0.03441552073 -0.1003156006 -0.0007072726337115098 0.0002306512244666199
0.03973697871 -0.1003156006 -0.0007067964705764993 0.00026750703953189853
0.04505843669 -0.1003156006 -0.0007221095988838617 0.00029528722026075455
0.05037989467 -0.1003156006 -0.000742676042538971 0.0003069572164649798
0.05570135266 -0.1003156006 -0.0007709927174885402 0.00032034485131062114
0.06102281436 -0.1003156006 -0.00079426326319434 0.0003338224695324861
0.06634426862 -0.1003156006 -0.0008186747755866173 0.00034584998741912575
0.0716657266 -0.1003156006 -0.0008382582006428493 0.0003571886004889424
0.07698718458 -0.1003156006 -0.0008829103957655034 0.00028690336081075386
0.08230864257 -0.1003156006 -0.0009301969870517228 0.00020945931789938734
0.08763010055 -0.1003156006 -0.0009772166009406741 0.0001277161216618124
0.09295155853 -0.1003156006 -0.0010285716122042047 5.0106983113553826e-05
0.09827301651 -0.1003156006 -0.0010760664810703208 -2.4375480674930604e-05
0.1035944745 -0.1003156006 -0.001121194833265661 -8.71675970603878e-05
0.1089159325 -0.1003156006 -0.0011325207033257684 -0.00012535610895058472
0.1142373979 -0.1003156006 -0.0011478544708467646 -0.00016344921147320142
0.1195588559 -0.1003156006 -0.0011479964694127152 -0.00020022913641800914
0.1248803139 -0.1003156006 -0.00115983134302104 -0.00023717446986683117
0.1302017719 -0.1003156006 -0.0011694978867740234 -0.00027504520364045906
0.1355232298 -0.1003156006 -0.0011556882057706976 -0.00027388964260116367
0.1408446878 -0.1003156006 -0.001122503934887127 -0.0002456887706383165
0.1461661458 -0.1003156006 -0.0011036786014013782 -0.00022608496519980413
0.1514876038 -0.1003156006 -0.0010779883308753172 -0.0002064814884102307
0.1568090618 -0.1003156006 -0.0010627169624595723 -0.00018655101840222868
0.1621305197 -0.1003156006 -0.001042899152112846 -0.0001667882326213801
0.1674519777 -0.1003156006 -0.0010226130633731215 -0.0002108957239367414
0.1727734357 -0.1003156006 -0.0010025433762242363 -0.00028766035849311385
0.1780948937 -0.1003156006 -0.0009845957163492904 -0.0003642572346066958
0.1834163517 -0.1003156006 -0.0009656301323256561 -0.00044067904436103603
0.1887378097 -0.1003156006 -0.0009511924287996176 -0.0004993748867044819
0.1940592676 -0.1003156006 -0.0009445279883996069 -0.0005202455931088823
0.1993807256 -0.1003156006 -0.0008472361404537959 -0.0005053301579865103
0.2047021836 -0.1003156006 -0.0007291456260017853 -0.00047828321529236437
0.2100236416 -0.1003156006 -0.0006092328011879954 -0.00045176386081067403
0.2153450996 -0.1003156006 -0.000503038549886975 -0.0004220661108821406
0.2206665576 -0.1003156006 -0.0003941199551321856 -0.000393409941801955
0.2259880155 -0.1003156006 -0.00028534676979138674 -0.00036522386176104384
0.2313094735 -0.1003156006 -0.00022893587010403216 -0.00021773261199812267
0.2366309315 -0.1003156006 -0.0001692543646654084 -8.438596468297907e-05
0.2419523895 -0.1003156006 -0.0001224718824006275 2.7067425615713995e-05
0.2472738475 -0.1003156006 -7.678580074803948e-05 0.0001337108000529494
0.2525953054 -0.1003156006 -1.947686485182973e-05 0.00022255674861907016
0.2579167783 -0.1003156006 1.9175060160967085e-05 0.0003043800581589497
0.2632382214 -0.1003156006 -4.161228813428013e-05 0.00035241349397741674
0.2685596943 -0.1003156006 -0.00013999087242160197 0.0003958702943526428
0.2738811374 -0.1003156006 -0.00024318138054520418 0.0004452324300393347
0.2792026103 -0.1003156006 -0.00034190005264687 0.0004895783099377534
0.2845240533 -0.1003156006 -0.0004298031313031143 0.0005222148827520931
0.2898455262 -0.1003156006 -0.0005247262276542447 0.0005550334808790916
0.2951669693 -0.1003156006 -0.0005851809204676523 0.0004474751673222644
0.3004884422 -0.1003156006 -0.0006368350128412648 0.0003195041978094606
0.3058098853 -0.1003156006 -0.0006965712535949403 0.00021852206857258296
0.3111313581 -0.1003156006 -0.0007527497902722252 0.00011749925553748712
0.3164528012 -0.1003156006 -0.000803444583565462 1.6713053773850194e-05
0.3217742741 -0.1003156006 -0.0008540283455726536 -8.383752770738098e-05
0.3270957172 -0.1003156006 -0.0007433305659955921 -0.00013414236943436037
0.3324171901 -0.1003156006 -0.0006183253673159214 -0.000185104961282581
0.3377386332 -0.1003156006 -0.0005095658156996223 -0.00023502698112345537
0.343060106 -0.1003156006 -0.0004001940055688683 -0.0002856069821733622
0.3483815491 -0.1003156006 -0.00030180339492124524 -0.0003437639698317977
0.353703022 -0.1003156006 -0.00021280618600884318 -0.00035465152848607737
0.3590244651 -0.1003156006 -0.00013654524995955201 -0.0002564206597448246
0.364345938 -0.1003156006 -4.997218261542638e-05 -0.00015798281220756518
0.369667381 -0.1003156006 1.989158876637969e-05 -7.956483046681433e-05
0.3749888539 -0.1003156006 9.144060393854275e-05 4.529829552358574e-06
0.380310297 -0.1003156006 0.00016601177715315968 9.052268011059439e-05
0.3856317699 -0.1003156006 0.00011929350876794184 0.00016713846375340666
0.390953213 -0.1003156006 4.7993522575778554e-05 0.0002299427639764464
0.3962746859 -0.1003156006 -2.6214300346501518e-05 0.00028986170182332475
0.4015961289 -0.1003156006 -0.00010563904452039597 0.000352898446118544
0.4069176018 -0.1003156006 -0.0001661792263842371 0.00041914175901874195
0.4122390449 -0.1003156006 -0.00022650040369429623 0.0004368483267890364
0.4175605178 -0.1003156006 -0.00030535947632289465 0.00039241473956336866
0.4228819609 -0.1003156006 -0.00037861313977126154 0.00034439659884680506
0.4282034338 -0.1003156006 -0.00046211153293567993 0.0002980312009523535
0.4335248768 -0.1003156006 -0.0005306491089060208 0.00025669555311653324
0.4388463497 -0.1003156006 -0.0005751104815314048 0.00020361596616792557
0.4441677928 -0.1003156006 -0.0005729716493312626 0.00012475890387387021
0.4494892657 -0.1003156006 -0.0005729279930150985 4.674846741535772e-05
0.4548107088 -0.1003156006 -0.0005683743746661932 -2.623261499808078e-05
0.4601321816 -0.1003156006 -0.0005734875711126178 -0.00010104243220974582
0.4654536247 -0.1003156006 -0.0005334939768618461 -0.00016589407967137324
0.4707750976 -0.1003156006 -0.0004667416517406791 -0.00021142678000790429
0.4760965407 -0.1003156006 -0.00039717114362671657 -0.00025263369967907747
0.4814180136 -0.1003156006 -0.00033202441420673206 -0.00029396134709004814
0.4867394567 -0.1003156006 -0.0002628818299737788 -0.000337173036166941
0.4920609295 -0.1003156006 -0.00018336614433601823 -0.0003485757334480202
0.4973823726 -0.1003156006 -0.00010590612072596358 -0.0003491746282236905
0.5027038455 -0.1003156006 -2.0373023335608927e-05 -0.00035184980797056204
0.5080252886 -0.1003156006 5.96188591026134e-05 -0.0003540532394598872
0.5133467317 -0.1003156006 0.00012776245545393443 -0.0003434686529078711
0.5186682343 -0.1003156006 0.0001931695454607894 -0.0003150473521176594
0.5239896774 -0.1003156006 0.00026466899401512284 -0.0002872080570653773
0.5293111205 -0.1003156006 0.00032220783285594347 -0.0002598521752360789
0.5346325636 -0.1003156006 0.000372464678803697 -0.00022635164370236446
0.5399540663 -0.1003156006 0.0004228704761889463 -0.00017980733192577133
0.5452755094 -0.1003156006 0.0004577192159086476 -0.00013293295698119516
0.5505969524 -0.1003156006 0.0005030107092282485 -8.801299387422925e-05
0.5559183955 -0.1003156006 0.0005355601925397222 -4.319741858791335e-05
0.5612398982 -0.1003156006 0.0005528082079935692 6.3129651819511496e-06
0.5665613413 -0.1003156006 0.0005751902119725788 5.508066512925662e-05
0.5718827844 -0.1003156006 0.0005979535256868506 9.700811518520113e-05
0.5772042274 -0.1003156006 0.0005846063563749293 0.00013704284646908879
0.5825257301 -0.1003156006 0.0005890736074851866 0.00017718894275431052
0.5878471732 -0.1003156006 0.0005901533462917694 0.0002113436476580455
0.5931686163 -0.1003156006 0.0005937022959566754 0.00023958526004954028
0.5984900594 -0.1003156006 0.0005970649453009769 0.0002680044796112973
0.6038115621 -0.1003156006 0.0005859326688001361 0.00028720123007146807
0.6091330051 -0.1003156006 0.0005845392445262959 0.00030513149333046225
0.6144544482 -0.1003156006 0.000565932146896312 0.0003150755747425663
0.6197758913 -0.1003156006 0.0005638977036622708 0.0003204829082332423
0.625097394 -0.1003156006 0.0005546380691605776 0.0003218422502743399
0.6304188371 -0.1003156006 0.0005687855055842406 0.0003137309011329427
0.6357402802 -0.1003156006 0.0005844485805949357 0.0003029180039041127
0.6410617828 -0.1003156006 0.0005832177595217281 0.0002858651373282421
0.6463832259 -0.1003156006 0.0005968682117315133 0.0002635735220720901
0.651704669 -0.1003156006 0.0006143629007487244 0.00023826123746077807
0.6570261121 -0.1003156006 0.0006263123933953531 0.00021303092199776268
0.6623476148 -0.1003156006 0.0006507497997403304 0.00018307170670728653
0.6676690578 -0.1003156006 0.0006678057894044248 0.00014985144441795418
0.6729905009 -0.1003156006 0.000694844010126569 0.00011470538385444491
0.678311944 -0.1003156006 0.000738948340818191 7.349936050857832e-05
0.6836334467 -0.1003156006 0.0007735499907386153 2.6557860123509834e-05
0.6889548898 -0.1003156006 0.000830951385840797 -2.830873984633091e-05
0.6942763329 -0.1003156006 0.0008717704159840269 -8.85418746131834e-05
0.6995977759 -0.1003156006 0.0009262937712864223 -0.00015393755598725394
0.7049192786 -0.1003156006 0.0009817729780666118 -0.00022652187611890335
0.7102407217 -0.1003156006 0.0010497979868531006 -0.00031352950184302216
0.7155621648 -0.1003156006 0.0011206428267178975 -0.0004161315077795315
0.7208836079 -0.1003156006 0.0012140552061734604 -0.000525917146639543
0.7262051105 -0.1003156006 0.0013142135095667521 -0.0006451330406027813
0.7315265536 -0.1003156006 0.0014352344663408536 -0.0007759878617444992
0.7368479967 -0.1003156006 0.0015814734210995171 -0.0009277516828295853
0.7421694398 -0.1003156006 0.0017619896603102757 -0.001093984252810741
0.7474909425 -0.1003156006 0.001978218342979534 -0.0012553779335757918
0.7528123856 -0.1003156006 0.0022249812242806756 -0.0014401243125228764
0.7581338286 -0.1003156006 0.002507490517374803 -0.0016289845978032533
-0.3008363545 -0.09699654579 -0.0014315262668144818 6.428769928156836e-05
-0.2955148816 -0.09699654579 -0.001280830361706308 5.813859386101999e-05
-0.2901934385 -0.09699654579 -0.0012479922230332063 2.3499998082608328e-05
-0.2848719656 -0.09699654579 -0.0013004439216600622 8.142835824109152e-05
-0.2795505226 -0.09699654579 -0.0013529500220317893 0.00021607184904752415
-0.2742290497 -0.09699654579 -0.0014146125711266284 0.0003241184538639443
-0.2689076066 -0.09699654579 -0.0014461920863895628 0.0003957617164703607
-0.2635861337 -0.09699654579 -0.0015258341429267611 0.0003593297340947
-0.2582646906 -0.09699654579 -0.0016489871770551602 0.00019763479963058803
-0.2529432178 -0.09699654579 -0.0016177424317610513 0.00026644627447446805
-0.2476217598 -0.09699654579 -0.0015829667559149325 0.00036219496181784556
-0.2423003018 -0.09699654579 -0.0015617721288313459 0.00040290932056884086
-0.2369788438 -0.09699654579 -0.001492149545618974 0.0003680963131289171
-0.2316573858 -0.09699654579 -0.001528232955939026 0.00036772718427455507
-0.2263359278 -0.09699654579 -0.0015246142271675071 0.00037729207456536613
-0.2210144699 -0.09699654579 -0.0014713900681638695 0.0003913493722695396
-0.2156930119 -0.09699654579 -0.0014365539281725383 0.0003767775377359252
-0.2103715539 -0.09699654579 -0.0014060886846612218 0.00034401096034478103
-0.2050500959 -0.09699654579 -0.001362635888858676 0.00029265280014617763
-0.1997286379 -0.09699654579 -0.0013669585417340941 0.0002448480270324747
-0.19440718 -0.09699654579 -0.0013706879280425154 0.0002110357162519821
-0.189085722 -0.09699654579 -0.0013244419009714535 0.00022462891040797665
-0.183764264 -0.09699654579 -0.0012831513904311312 0.0002500143856468312
-0.178442806 -0.09699654579 -0.001217429670167432 0.00027373693767306925
-0.173121348 -0.09699654579 -0.001138812763550595 0.0002750452307296535
-0.16779989 -0.09699654579 -0.0010337193082563493 0.0002617326135966065
-0.1624784321 -0.09699654579 -0.0009299109761426378 0.00023740752666821894
-0.1571569741 -0.09699654579 -0.0008461426555822336 0.00022910984873853168
-0.1518355161 -0.09699654579 -0.0007853807143383242 0.000216825729867861
-0.1465140581 -0.09699654579 -0.000736508303231383 0.00020139580072788866
-0.1411926001 -0.09699654579 -0.0006801414537911981 0.00019140450305007187
-0.1358711421 -0.09699654579 -0.0006242311372589338 0.0001893004612533594
-0.1305496842 -0.09699654579 -0.0005651966576004111 0.00018740698880686081
-0.1252282262 -0.09699654579 -0.0005159455537496392 0.00019671221619357873
-0.1199067682 -0.09699654579 -0.0004886619846907999 0.00024974660015632944
-0.1145853102 -0.09699654579 -0.0004641682916125708 0.0003110061304912482
-0.1092638522 -0.09699654579 -0.0004454567316543936 0.00037075588057895113
-0.1039423943 -0.09699654579 -0.00043862758274002635 0.000429052453376233
-0.09862093627 -0.09699654579 -0.00045712622700085185 0.0004264096560028558
-0.09329947084 -0.09699654579 -0.00047633631185086387 0.00042144408977872236
-0.08797801286 -0.09699654579 -0.0005004240176525216 0.0004130517896813168
-0.08265655488 -0.09699654579 -0.0005199739924960732 0.0004069604537069463
-0.0773350969 -0.09699654579 -0.0005439362857627669 0.0003872895199944653
-0.07201363891 -0.09699654579 -0.0005761859155576316 0.00036839584231317205
-0.06669218093 -0.09699654579 -0.0006061716802765974 0.00034865885129558834
-0.06137072667 -0.09699654579 -0.0006628150696748117 0.00032747487255972463
-0.05604926869 -0.09699654579 -0.0007001014322017654 0.0003113368390366076
-0.05072781071 -0.09699654579 -0.0007294540287422394 0.0002973191198991516
-0.045406349 -0.09699654579 -0.0007684480908150623 0.00028324056714786896
-0.04008489102 -0.09699654579 -0.0008032270184633367 0.0002682036191066553
-0.03476343304 -0.09699654579 -0.0008447682124155962 0.00025276161967008467
-0.02944197692 -0.09699654579 -0.0008792905653757871 0.00023424088778924558
-0.02412051894 -0.09699654579 -0.000908091712478689 0.000215945349969684
-0.01879905909 -0.09699654579 -0.0009392946364213158 0.00019725510453064588
-0.01347760204 -0.09699654579 -0.0009736447500388407 0.00017885743604956339
-0.00815614406 -0.09699654579 -0.000982507253777272 0.00016110974238079325
-0.00283468538 -0.09699654579 -0.000978169274092819 0.0001441225680692411
0.002486772602 -0.09699654579 -0.0009652137457521863 0.00012622585162978096
0.007808230817 -0.09699654579 -0.000952507926403904 0.00010801690579465268
0.0131296888 -0.09699654579 -0.0009475691575072482 9.051753285464341e-05
0.01845114678 -0.09699654579 -0.0009448511139064439 0.00010678979362322212
0.02377260476 -0.09699654579 -0.0009455750914147954 0.00014871878902446897
0.02909406275 -0.09699654579 -0.0009470181396639104 0.0001924246551271113
0.03441552073 -0.09699654579 -0.0009536777373952063 0.0002364035384898956
0.03973697871 -0.09699654579 -0.0009618854426316413 0.0002785005436933391
0.04505843669 -0.09699654579 -0.0009757397110500948 0.0003106714205770583
0.05037989467 -0.09699654579 -0.0010003939354838105 0.0003251803805982794
0.05570135266 -0.09699654579 -0.0010293703049969079 0.00033995619735974273
0.06102281436 -0.09699654579 -0.0010603377453081108 0.0003549783024029466
0.06634426862 -0.09699654579 -0.0010796051580954705 0.0003691980413114614
0.0716657266 -0.09699654579 -0.0011053487881544713 0.0003835186161954868
0.07698718458 -0.09699654579 -0.0011540842143918702 0.0003044054606652493
0.08230864257 -0.09699654579 -0.0011961994857255251 0.00021939162186366575
0.08763010055 -0.09699654579 -0.0012471442756602624 0.00013494276154831053
0.09295155853 -0.09699654579 -0.0012972852795802485 5.0253700815119554e-05
0.09827301651 -0.09699654579 -0.0013536559880923346 -3.4765549846709935e-05
0.1035944745 -0.09699654579 -0.0013906428127071816 -0.00010413815472631139
0.1089159325 -0.09699654579 -0.0014031392335467775 -0.0001441151056033267
0.1142373979 -0.09699654579 -0.0014319792566955178 -0.0001853854438408016
0.1195588559 -0.09699654579 -0.0014468348284026526 -0.0002288490368092479
0.1248803139 -0.09699654579 -0.0014691561735262603 -0.00027228123892999876
0.1302017719 -0.09699654579 -0.0014959821890873192 -0.0003132547455882285
0.1355232298 -0.09699654579 -0.0014727603054295244 -0.0003114200133531758
0.1408446878 -0.09699654579 -0.0014281795529472098 -0.00027793057945660636
0.1461661458 -0.09699654579 -0.0013888360205963153 -0.0002443015111688954
0.1514876038 -0.09699654579 -0.0013430426145494426 -0.00020659280811539577
0.1568090618 -0.09699654579 -0.0013066227463999092 -0.00016924378170763164
0.1621305197 -0.09699654579 -0.0012693729680393845 -0.00013789341468937492
0.1674519777 -0.09699654579 -0.0012495787026633232 -0.00016599498277330857
0.1727734357 -0.09699654579 -0.001225415944459524 -0.00021086115671863263
0.1780948937 -0.09699654579 -0.0012012075314028865 -0.0002291272082908488
0.1834163517 -0.09699654579 -0.0011779114271113136 -0.0002568727890873563
0.1887378097 -0.09699654579 -0.0011457316581059897 -0.0003378979227956739
0.1940592676 -0.09699654579 -0.0011195793890012968 -0.0004191385432349175
0.1993807256 -0.09699654579 -0.0009811659716163395 -0.0004791678367030528
0.2047021836 -0.09699654579 -0.0008306165178735439 -0.0005338735519595199
0.2100236416 -0.09699654579 -0.0006716627633885534 -0.0005819766445835628
0.2153450996 -0.09699654579 -0.0005247052837439515 -0.0006297294499037639
0.2206665576 -0.09699654579 -0.00036671929992120516 -0.0006769687748405049
0.2259880155 -0.09699654579 -0.0002236496872048427 -0.0007246292393236429
0.2313094735 -0.09699654579 -0.00013756064470164995 -0.0005823702518831987
0.2366309315 -0.09699654579 -7.63998118538807e-05 -0.0003700331008860431
0.2419523895 -0.09699654579 -2.481435238974734e-05 -0.0001576772198958321
0.2472738475 -0.09699654579 2.859557409329589e-05 5.4694379119994345e-05
0.2525953054 -0.09699654579 8.677306821856799e-05 0.00022928037358983138
0.2579167783 -0.09699654579 0.00013863199624847668 0.0003695071133875735
0.2632382214 -0.09699654579 4.081102152480761e-05 0.0004430276046196147
0.2685596943 -0.09699654579 -7.620718421615153e-05 0.0005049016609575374
0.2738811374 -0.09699654579 -0.0001866870131016208 0.0005648691664158096
0.2792026103 -0.09699654579 -0.0002854954239127437 0.0006240412757866372
0.2845240533 -0.09699654579 -0.00038395884673187374 0.0006827811360610007
0.2898455262 -0.09699654579 -0.0004896261607592543 0.0007425649405537487
0.2951669693 -0.09699654579 -0.0005502826113360788 0.0006195927198180569
0.3004884422 -0.09699654579 -0.000602692200504789 0.0004891587511915955
0.3058098853 -0.09699654579 -0.0006588925285454485 0.0003476206713390365
0.3111313581 -0.09699654579 -0.0007174779357732262 0.00020625208827971855
0.3164528012 -0.09699654579 -0.0007758612151758672 7.37279699036886e-05
0.3217742741 -0.09699654579 -0.0008250275077960869 -3.628416093347443e-05
0.3270957172 -0.09699654579 -0.0006878802698062329 -0.00011948270317405637
0.3324171901 -0.09699654579 -0.0005557644325365689 -0.0002029439484515948
0.3377386332 -0.09699654579 -0.0004326887240726814 -0.00027935769488438375
0.343060106 -0.09699654579 -0.0003043249003859684 -0.00034923026424764586
0.3483815491 -0.09699654579 -0.00018020011862185405 -0.00041951554365897095
0.353703022 -0.09699654579 -6.909129181641015e-05 -0.000423630300260384
0.3590244651 -0.09699654579 2.8911433844158313e-05 -0.0003071215817395864
0.364345938 -0.09699654579 0.00011493625636614733 -0.0001983756021031784
0.369667381 -0.09699654579 0.00020017677184209508 -8.943812539786931e-05
0.3749888539 -0.09699654579 0.0002849533443832243 1.947747921543706e-05
0.380310297 -0.09699654579 0.00036963496572952893 0.00011833497633065794
0.3856317699 -0.09699654579 0.0003150748579785318 0.00019368368735716285
0.390953213 -0.09699654579 0.00022908417341941802 0.00027048320198404236
0.3962746859 -0.09699654579 0.0001373059241741661 0.00034883870887971407
0.4015961289 -0.09699654579 5.367817736151941e-05 0.00042229441054490664
0.4069176018 -0.09699654579 -3.105641552203675e-05 0.0004878397836830645
0.4122390449 -0.09699654579 -0.00011994413020708001 0.0004973841593202764
0.4175605178 -0.09699654579 -0.00022014117371805102 0.00043545554208218677
0.4228819609 -0.09699654579 -0.0003084563459568461 0.0003802625146989027
0.4282034338 -0.09699654579 -0.0003896434510484314 0.00032670786138109636
0.4335248768 -0.09699654579 -0.00048222818349907793 0.00027314961967660884
0.4388463497 -0.09699654579 -0.0005430338446916143 0.00020225924750165845
0.4441677928 -0.09699654579 -0.000550865227242375 0.00011119354458519792
0.4494892657 -0.09699654579 -0.0005431863430846283 2.580791334008054e-05
0.4548107088 -0.09699654579 -0.0005389267611052158 -5.8520017040496105e-05
0.4601321816 -0.09699654579 -0.0005335153508847656 -0.00014115884263484987
0.4654536247 -0.09699654579 -0.0005048344811133999 -0.00020500229946822976
0.4707750976 -0.09699654579 -0.00043510981058240706 -0.0002535137998991192
0.4760965407 -0.09699654579 -0.00035615809396159325 -0.0003012291764311235
0.4814180136 -0.09699654579 -0.00028521696464231034 -0.00034920184659455275
0.4867394567 -0.09699654579 -0.00021387927962284407 -0.00039259674003666367
0.4920609295 -0.09699654579 -0.00013988628457557684 -0.0004020313499802838
0.4973823726 -0.09699654579 -5.7342545973799714e-05 -0.00040238271578274694
0.5027038455 -0.09699654579 2.6035992101997367e-05 -0.00040417347799942923
0.5080252886 -0.09699654579 0.00010930589943872239 -0.00040460428920524453
0.5133467317 -0.09699654579 0.0001784173422422975 -0.00038890930575947037
0.5186682343 -0.09699654579 0.0002443165109022041 -0.0003569830364746677
0.5239896774 -0.09699654579 0.0003125583296692371 -0.00032834731750265594
0.5293111205 -0.09699654579 0.00037680872049069273 -0.00029790381170804954
0.5346325636 -0.09699654579 0.00042939086909012775 -0.00025592953618818387
0.5399540663 -0.09699654579 0.00047155655211244364 -0.00020630438287394843
0.5452755094 -0.09699654579 0.0005125288373753127 -0.00015883631796081152
0.5505969524 -0.09699654579 0.0005685822349015821 -0.00010848424672524764
0.5559183955 -0.09699654579 0.0005833848414907621 -5.4820508721556e-05
0.5612398982 -0.09699654579 0.0006158116237391552 -4.804148162008332e-06
0.5665613413 -0.09699654579 0.0006229925283837811 4.476582278897813e-05
0.5718827844 -0.09699654579 0.0006383524305246062 9.578694723004311e-05
0.5772042274 -0.09699654579 0.0006310905923989265 0.00013766208951177295
0.5825257301 -0.09699654579 0.0006326311680748027 0.0001792972044378243
0.5878471732 -0.09699654579 0.0006226859408827076 0.00021737400615154167
0.5931686163 -0.09699654579 0.0006209285295856052 0.0002458454308055011
0.5984900594 -0.09699654579 0.000615744019152842 0.0002729462928141231
0.6038115621 -0.09699654579 0.0005997809817885436 0.00029255042005003147
0.6091330051 -0.09699654579 0.0005868334729236092 0.00030595280916378514
0.6144544482 -0.09699654579 0.0005701986000506775 0.000317324923735449
0.6197758913 -0.09699654579 0.000562867646000202 0.00032042044722029945
0.625097394 -0.09699654579 0.0005576600967895447 0.000321091653734595
0.6304188371 -0.09699654579 0.000566607707650584 0.0003134264503963475
0.6357402802 -0.09699654579 0.0005614548722626464 0.00030024564269671424
0.6410617828 -0.09699654579 0.000567821036846231 0.00028179979092939864
0.6463832259 -0.09699654579 0.000579699235356167 0.0002574274977417074
0.651704669 -0.09699654579 0.000587529644251777 0.00022902126748812425
0.6570261121 -0.09699654579 0.0006001671818343271 0.0001999523056849167
0.6623476148 -0.09699654579 0.0006173029593983618 0.00016933304166225486
0.6676690578 -0.09699654579 0.0006286378491125608 0.00013187822739335863
0.6729905009 -0.09699654579 0.0006603668543811126 9.497967221072996e-05
0.678311944 -0.09699654579 0.0006967527162381171 5.159222657394883e-05
0.6836334467 -0.09699654579 0.0007407735409578672 2.7737294290373026e-06
0.6889548898 -0.09699654579 0.0007860209566548276 -5.417965259376371e-05
0.6942763329 -0.09699654579 0.0008306459748403537 -0.00011772482462010504
0.6995977759 -0.09699654579 0.0008762702054751027 -0.00018782252744039827
0.7049192786 -0.09699654579 0.0009169944300071597 -0.000265609611882709
0.7102407217 -0.09699654579 0.0009773617247307333 -0.00035721736132845186
0.7155621648 -0.09699654579 0.0010460332760649648 -0.00046472059701519803
0.7208836079 -0.09699654579 0.001127320655417844 -0.0005864757169520264
0.7262051105 -0.09699654579 0.0012243667920792383 -0.0007209504553839432
0.7315265536 -0.09699654579 0.0013363766010388734 -0.0008594415857999695
0.7368479967 -0.09699654579 0.0014619858763274644 -0.0010274580299324478
0.7421694398 -0.09699654579 0.0016443952619739903 -0.0012066605370137915
0.7474909425 -0.09699654579 0.0018502782241741648 -0.0014044806976818659
0.7528123856 -0.09699654579 0.0020887365519247887 -0.0016101860735538136
0.7581338286 -0.09699654579 0.0023740699317568465 -0.0018242082953670985
-0.3008363545 -0.09367749095 -0.0016356808507897466 9.589686653335309e-05
-0.2955148816 -0.09367749095 -0.001563954825466753 9.615836912295995e-05
-0.2901934385 -0.09367749095 -0.001428801555154316 1.0699210260979684e-05
-0.2848719656 -0.09367749095 -0.0014076564248953964 9.812341643019208e-05
-0.2795505226 -0.09367749095 -0.001469515075600377 0.00023802616124888416
-0.2742290497 -0.09367749095 -0.0015011708727622251 0.000266519792071377
-0.2689076066 -0.09367749095 -0.001564501749670329 0.0002890739703077201
-0.2635861337 -0.09367749095 -0.0017265221161259577 0.00015811829746984412