VARIABLES = X,Y,phix,phiy
ZONE I=200,J=200,F=POINT 
-0.3008363545 -0.1003156006 -6.489750271510674e-05 0.0007153573889872378
-0.2955148816 -0.1003156006 -8.504130510482295e-05 0.0007168154059850138
-0.2901934385 -0.1003156006 -0.00010479811563365384 0.0007151236635211976
-0.2848719656 -0.1003156006 -0.000125713011591152 0.0007130686102179074
-0.2795505226 -0.1003156006 -0.00014826030581935817 0.0007092277350404837
-0.2742290497 -0.1003156006 -0.0001715064080026195 0.0007024966757554403
-0.2689076066 -0.1003156006 -0.00019662380934296547 0.0006951009422170482
-0.2635861337 -0.1003156006 -0.00021751479980027994 0.0006858839069296122
-0.2582646906 -0.1003156006 -0.00023788747334863928 0.0006730631279505761
-0.2529432178 -0.1003156006 -0.00025788321086023643 0.0006585905170641564
-0.2476217598 -0.1003156006 -0.0002786682065020697 0.0006430051535320505
-0.2423003018 -0.1003156006 -0.00029626327692920126 0.000627839329076572
-0.2369788438 -0.1003156006 -0.0003123427085795801 0.0006114801845980857
-0.2316573858 -0.1003156006 -0.00032873888379035684 0.0005937456552156048
-0.2263359278 -0.1003156006 -0.0003439602035971639 0.0005755334897013011
-0.2210144699 -0.1003156006 -0.00035575562212406 0.0005554000526834792
-0.2156930119 -0.1003156006 -0.0003675789339906145 0.0005341928037810456
-0.2103715539 -0.1003156006 -0.000378775458458249 0.0005116608638195272
-0.2050500959 -0.1003156006 -0.00038617630150951664 0.0004912036425853201
-0.1997286379 -0.1003156006 -0.00039299015839679515 0.00046956820733836405
-0.19440718 -0.1003156006 -0.00039918531531266794 0.00044689313900506805
-0.189085722 -0.1003156006 -0.0004019462796386078 0.00042636367037751047
-0.183764264 -0.1003156006 -0.0004026758875981246 0.000405006034518317
-0.178442806 -0.1003156006 -0.0004037231988125885 0.00038341571147144937
-0.173121348 -0.1003156006 -0.00040268824766356577 0.00036472088657115646
-0.16779989 -0.1003156006 -0.00040157331112098863 0.00034664988141413936
-0.1624784321 -0.1003156006 -0.00039941587661142697 0.0003283610749449466
-0.1571569741 -0.1003156006 -0.0003972680392810592 0.00031255284558669784
-0.1518355161 -0.1003156006 -0.0003945298323538987 0.0002978826655343135
-0.1465140581 -0.1003156006 -0.00039165344321614754 0.00028334388433081753
-0.1411926001 -0.1003156006 -0.00038890498114205955 0.00026916577944984796
-0.1358711421 -0.1003156006 -0.0003853987804048403 0.00025644858410685213
-0.1305496842 -0.1003156006 -0.0003818924247629198 0.00024373178461051243
-0.1252282262 -0.1003156006 -0.00037813796718154304 0.0002308734357611354
-0.1199067682 -0.1003156006 -0.0003744094500814922 0.00021938504725260783
-0.1145853102 -0.1003156006 -0.00037042514028095885 0.00020816778641967777
-0.1092638522 -0.1003156006 -0.00036625692122047384 0.0001969096963774349
-0.1039423943 -0.1003156006 -0.00036233804436102324 0.00018581202545280673
-0.09862093627 -0.1003156006 -0.00035843021250844516 0.0001762493397241959
-0.09329947084 -0.1003156006 -0.00035440128447626135 0.0001667778261919735
-0.08797801286 -0.1003156006 -0.00035036989775202187 0.00015730626873484426
-0.08265655488 -0.1003156006 -0.00034645244922514354 0.00014780874389878432
-0.0773350969 -0.1003156006 -0.0003426696844213577 0.00013941104055688214
-0.07201363891 -0.1003156006 -0.0003389128443989665 0.00013106610298681016
-0.06669218093 -0.1003156006 -0.0003351582220744795 0.0001227211712163358
-0.06137072667 -0.1003156006 -0.00033131358633205075 0.00011437815277087301
-0.05604926869 -0.1003156006 -0.00032776524306074405 0.00010661490401779315
-0.05072781071 -0.1003156006 -0.00032414898281968416 9.900811370691533e-05
-0.045406349 -0.1003156006 -0.00032057758835337595 9.1413650241887e-05
-0.04008489102 -0.1003156006 -0.0003169413008436972 8.385139420505717e-05
-0.03476343304 -0.1003156006 -0.00031347449100337685 7.644127039717878e-05
-0.02944197692 -0.1003156006 -0.00031010849403281197 6.953592381028095e-05
-0.02412051894 -0.1003156006 -0.0003067237114449804 6.263805442852957e-05
-0.01879905909 -0.1003156006 -0.0003033127859100785 5.574371514214983e-05
-0.01347760204 -0.1003156006 -0.00029993450472768 4.885073316245586e-05
-0.00815614406 -0.1003156006 -0.0002968043244663005 4.211034076656303e-05
-0.00283468538 -0.1003156006 -0.0002937465389584403 3.5586640257620746e-05
0.002486772602 -0.1003156006 -0.00029067848837541443 2.9082849111334593e-05
0.007808230817 -0.1003156006 -0.00028761013142319925 2.2575325459791804e-05
0.0131296888 -0.1003156006 -0.00028454855652994726 1.6055417416727076e-05
0.01845114678 -0.1003156006 -0.0002815517725921181 9.608184116752365e-06
0.02377260476 -0.1003156006 -0.0002785181871629351 3.313030112026812e-06
0.02909406275 -0.1003156006 -0.0002754699822500144 -2.99459292181684e-06
0.03441552073 -0.1003156006 -0.00027241841137942246 -9.302213110453377e-06
0.03973697871 -0.1003156006 -0.0002693821102000259 -1.559970679702355e-05
0.04505843669 -0.1003156006 -0.0002663717050983604 -2.177468079104999e-05
0.05037989467 -0.1003156006 -0.0002632715715230842 -2.7569157699139463e-05
0.05570135266 -0.1003156006 -0.00026016406157414716 -3.334637323523071e-05
0.06102281436 -0.1003156006 -0.0002570369576237652 -3.913550853057392e-05
0.06634426862 -0.1003156006 -0.00025394623041117496 -4.491824714066438e-05
0.0716657266 -0.1003156006 -0.00025085050015978544 -5.071157155952256e-05
0.07698718458 -0.1003156006 -0.0002480189985774147 -5.61380651191015e-05
0.08230864257 -0.1003156006 -0.0002451657874462071 -6.148285420674235e-05
0.08763010055 -0.1003156006 -0.0002423324000830559 -6.680478523450084e-05
0.09295155853 -0.1003156006 -0.000239502343807778 -7.21378865564438e-05
0.09827301651 -0.1003156006 -0.00023666238923535034 -7.748644972944937e-05
0.1035944745 -0.1003156006 -0.00023392300162324606 -8.285465500229774e-05
0.1089159325 -0.1003156006 -0.00023132298865377945 -8.811609965214433e-05
0.1142373979 -0.1003156006 -0.00022871585522222764 -9.337748003282696e-05
0.1195588559 -0.1003156006 -0.00022613108036959818 -9.864264531669755e-05
0.1248803139 -0.1003156006 -0.0002235517971671196 -0.00010389989296925768
0.1302017719 -0.1003156006 -0.0002209492137835359 -0.00010916576566052927
0.1355232298 -0.1003156006 -0.0002183515655625308 -0.00011452542009443568
0.1408446878 -0.1003156006 -0.00021575748937247973 -0.00011987390072709608
0.1461661458 -0.1003156006 -0.00021313148426690875 -0.0001252250468367294
0.1514876038 -0.1003156006 -0.00021050913247501547 -0.00013057612306510843
0.1568090618 -0.1003156006 -0.0002078857843496406 -0.00013592707945013797
0.1621305197 -0.1003156006 -0.0002052538421209561 -0.0001412829572959047
0.1674519777 -0.1003156006 -0.00020250529651403784 -0.00014667338494750911
0.1727734357 -0.1003156006 -0.00019961059428446704 -0.00015206014380544716
0.1780948937 -0.1003156006 -0.00019671533994393745 -0.00015744678867903316
0.1834163517 -0.1003156006 -0.0001938213925105842 -0.00016283349678259242
0.1887378097 -0.1003156006 -0.0001909586751413862 -0.0001682029106445485
0.1940592676 -0.1003156006 -0.00018807551321582195 -0.00017357052587654943
0.1993807256 -0.1003156006 -0.00018507713682029955 -0.00017879357298252897
0.2047021836 -0.1003156006 -0.00018203264442634429 -0.0001839211311917661
0.2100236416 -0.1003156006 -0.00017898991507732493 -0.0001890599223519585
0.2153450996 -0.1003156006 -0.0001760220647444751 -0.00019416050515268284
0.2206665576 -0.1003156006 -0.00017298564933461403 -0.00019929234668409913
0.2259880155 -0.1003156006 -0.00016994955980868578 -0.00020442065570645023
0.2313094735 -0.1003156006 -0.0001669074884029089 -0.000209541321491208
0.2366309315 -0.1003156006 -0.00016388371593810514 -0.00021460120672022094
0.2419523895 -0.1003156006 -0.00016082787508202282 -0.0002196641800004231
0.2472738475 -0.1003156006 -0.00015779840155283808 -0.00022473475453751405
0.2525953054 -0.1003156006 -0.00015477308349111238 -0.0002297946197199631
0.2579167783 -0.1003156006 -0.00015177664486411022 -0.00023484067701350848
0.2632382214 -0.1003156006 -0.0001486410920624285 -0.0002399093411962031
0.2685596943 -0.1003156006 -0.00014550189370742675 -0.0002449300858528993
0.2738811374 -0.1003156006 -0.0001423261113507292 -0.00024998678709148
0.2792026103 -0.1003156006 -0.00013918239322129413 -0.000255018199234087
0.2845240533 -0.1003156006 -0.00013601243707553248 -0.0002600449979573678
0.2898455262 -0.1003156006 -0.0001328450396447929 -0.00026507187729215415
0.2951669693 -0.1003156006 -0.00012950837284546652 -0.0002700432824338349
0.3004884422 -0.1003156006 -0.0001261731329942978 -0.0002749601375505837
0.3058098853 -0.1003156006 -0.00012281137146159853 -0.0002798719390907268
0.3111313581 -0.1003156006 -0.00011944835506744292 -0.0002847834730416122
0.3164528012 -0.1003156006 -0.00011609088437051563 -0.00028969555320545554
0.3217742741 -0.1003156006 -0.00011280518385448964 -0.000294626312651295
0.3270957172 -0.1003156006 -0.00010935520428034391 -0.0002993865563307047
0.3324171901 -0.1003156006 -0.00010586553142982372 -0.0003041446742041721
0.3377386332 -0.1003156006 -0.00010237667511933364 -0.00030890256628475336
0.343060106 -0.1003156006 -9.888319258981997e-05 -0.00031366868689597935
0.3483815491 -0.1003156006 -9.545455844547958e-05 -0.0003183944766381408
0.353703022 -0.1003156006 -9.199639487303381e-05 -0.0003230896208160242
0.3590244651 -0.1003156006 -8.852698921722967e-05 -0.0003275979430555669
0.364345938 -0.1003156006 -8.505743904740602e-05 -0.00033211071274657274
0.369667381 -0.1003156006 -8.163814044810419e-05 -0.0003366197269559027
0.3749888539 -0.1003156006 -7.821956334553353e-05 -0.0003411277286169266
0.380310297 -0.1003156006 -7.476244745186695e-05 -0.00034564506056978324
0.3856317699 -0.1003156006 -7.14262134167129e-05 -0.000350176081517822
0.390953213 -0.1003156006 -6.814460858880738e-05 -0.0003546645364715214
0.3962746859 -0.1003156006 -6.482809362993978e-05 -0.00035917591072499936
0.4015961289 -0.1003156006 -6.15497094859649e-05 -0.00036370397273784996
0.4069176018 -0.1003156006 -5.824932206436568e-05 -0.0003682240221614754
0.4122390449 -0.1003156006 -5.501117862677318e-05 -0.00037279378256557946
0.4175605178 -0.1003156006 -5.177982747331252e-05 -0.00037741358477351883
0.4228819609 -0.1003156006 -4.850649222120013e-05 -0.00038206052618496917
0.4282034338 -0.1003156006 -4.526057171132795e-05 -0.00038669067655281976
0.4335248768 -0.1003156006 -4.198760692286359e-05 -0.00039132535897731487
0.4388463497 -0.1003156006 -3.870615052652499e-05 -0.00039600793678947464
0.4441677928 -0.1003156006 -3.5383925605341305e-05 -0.0004007057530505888
0.4494892657 -0.1003156006 -3.210836217734582e-05 -0.00040537865524087785
0.4548107088 -0.1003156006 -2.8828587509178804e-05 -0.0004100513407991166
0.4601321816 -0.1003156006 -2.5502243337298998e-05 -0.00041475147158832556
0.4654536247 -0.1003156006 -2.2228096383099494e-05 -0.0004195088025099243
0.4707750976 -0.1003156006 -1.903689414288139e-05 -0.00042426629365313845
0.4760965407 -0.1003156006 -1.57783007073356e-05 -0.00042906564821792716
0.4814180136 -0.1003156006 -1.2513533850076326e-05 -0.00043386534614914247
0.4867394567 -0.1003156006 -9.301655331599282e-06 -0.0004386375198708082
0.4920609295 -0.1003156006 -6.254421056576634e-06 -0.00044360022668162713
0.4973823726 -0.1003156006 -3.1486858920701247e-06 -0.00044864778950153396
0.5027038455 -0.1003156006 -1.7722674041053187e-08 -0.00045366108182498153
0.5080252886 -0.1003156006 3.10904395944033e-06 -0.0004586779826298019
0.5133467317 -0.1003156006 6.130742388967545e-06 -0.000463877391385484
0.5186682343 -0.1003156006 8.99937295751364e-06 -0.0004692436376232832
0.5239896774 -0.1003156006 1.1932660877583163e-05 -0.00047463076749767726
0.5293111205 -0.1003156006 1.4816737070658858e-05 -0.0004800015109661731
0.5346325636 -0.1003156006 1.7787560372943273e-05 -0.00048568422755050785
0.5399540663 -0.1003156006 2.04874491390131e-05 -0.0004916221120759979
0.5452755094 -0.1003156006 2.3241544316330635e-05 -0.0004975759391492895
0.5505969524 -0.1003156006 2.6001264850653565e-05 -0.0005035166194909285
0.5559183955 -0.1003156006 2.8820452969961746e-05 -0.0005100448692315254
0.5612398982 -0.1003156006 3.139100006237597e-05 -0.000516761870632157
0.5665613413 -0.1003156006 3.3968174887577114e-05 -0.000523468194644422
0.5718827844 -0.1003156006 3.6844398426133186e-05 -0.0005305523745339865
0.5772042274 -0.1003156006 3.94141321413049e-05 -0.0005382427652251213
0.5825257301 -0.1003156006 4.206363180759111e-05 -0.0005459237435315985
0.5878471732 -0.1003156006 4.474190876727551e-05 -0.0005541016751619981
0.5931686163 -0.1003156006 4.754977925810458e-05 -0.0005628308882173135
0.5984900594 -0.1003156006 5.016978018651551e-05 -0.0005715533291434257
0.6038115621 -0.1003156006 5.2959539062418556e-05 -0.0005813999166449374
0.6091330051 -0.1003156006 5.595371251315727e-05 -0.0005914260318780325
0.6144544482 -0.1003156006 5.900545810569221e-05 -0.0006022235562405226
0.6197758913 -0.1003156006 6.226883576354005e-05 -0.0006138215238655995
0.625097394 -0.1003156006 6.598286248995647e-05 -0.0006258402468921205
0.6304188371 -0.1003156006 6.998072663848945e-05 -0.0006392384972712723
0.6357402802 -0.1003156006 7.456646731955837e-05 -0.0006530721367015381
0.6410617828 -0.1003156006 7.95299975652005e-05 -0.0006676787366718491
0.6463832259 -0.1003156006 8.4991161788989e-05 -0.0006836304677605816
0.651704669 -0.1003156006 9.101141914409203e-05 -0.0007002904770000307
0.6570261121 -0.1003156006 9.865426408925508e-05 -0.0007183220541186769
0.6623476148 -0.1003156006 0.00010747371610045911 -0.0007373008366000963
0.6676690578 -0.1003156006 0.00011708949961016861 -0.000757659554301339
0.6729905009 -0.1003156006 0.00012939639839874885 -0.0007794541482835387
0.678311944 -0.1003156006 0.00014337323213544482 -0.0008019056723475962
0.6836334467 -0.1003156006 0.0001592091621621693 -0.0008256035749632914
0.6889548898 -0.1003156006 0.0001782169012844447 -0.0008503142537778191
0.6942763329 -0.1003156006 0.0002003257557485987 -0.0008758467937714453
0.6995977759 -0.1003156006 0.00022532714427298572 -0.0009019109132798672
0.7049192786 -0.1003156006 0.0002539733196473658 -0.0009284549472602537
0.7102407217 -0.1003156006 0.00028729015627666256 -0.0009545221796572472
0.7155621648 -0.1003156006 0.00032538874122942156 -0.0009800584573024429
0.7208836079 -0.1003156006 0.00036796814231989115 -0.0010038400316111813
0.7262051105 -0.1003156006 0.0004155639439188483 -0.0010255244023730013
0.7315265536 -0.1003156006 0.0004682994828467397 -0.0010445800681125818
0.7368479967 -0.1003156006 0.0005286437745084821 -0.0010583743190133805
0.7421694398 -0.1003156006 0.0005940148349766834 -0.0010684939450087425
0.7474909425 -0.1003156006 0.0006617936276063916 -0.0010723962988078697
0.7528123856 -0.1003156006 0.0007352218477776779 -0.001068370955238313
0.7581338286 -0.1003156006 0.0008136478589687477 -0.0010559481641078518
-0.3008363545 -0.09699654579 -6.323870615138e-05 0.000727313714198139
-0.2955148816 -0.09699654579 -8.417933857078983e-05 0.0007289748081888958
-0.2901934385 -0.09699654579 -0.00010593537991636178 0.0007294347529825361
-0.2848719656 -0.09699654579 -0.00012748069242026188 0.0007268234281532231
-0.2795505226 -0.09699654579 -0.0001503108689836322 0.000723267475750621
-0.2742290497 -0.09699654579 -0.00017448327430314787 0.0007176941572920978
-0.2689076066 -0.09699654579 -0.0002003455604689255 0.0007088801415240845
-0.2635861337 -0.09699654579 -0.00022484829811838267 0.00069954627653563
-0.2582646906 -0.09699654579 -0.0002461634913947642 0.0006871324167011571
-0.2529432178 -0.09699654579 -0.00026697452770557646 0.0006722068237664656
-0.2476217598 -0.09699654579 -0.00028784423438707663 0.0006550436921041343
-0.2423003018 -0.09699654579 -0.0003069288240469595 0.0006386059179909211
-0.2369788438 -0.09699654579 -0.00032354782481679926 0.0006217957381059371
-0.2316573858 -0.09699654579 -0.00033961418199578104 0.0006032821180574977
-0.2263359278 -0.09699654579 -0.00035616229273921496 0.0005838348202093989
-0.2210144699 -0.09699654579 -0.00036867728211144866 0.0005638812419914359
-0.2156930119 -0.09699654579 -0.00038024552627157274 0.0005415100472816375
-0.2103715539 -0.09699654579 -0.00039219818208052927 0.0005176708967462092
-0.2050500959 -0.09699654579 -0.00040037085826450535 0.0004956237534509868
-0.1997286379 -0.09699654579 -0.00040654830878249476 0.0004728946280861918
-0.19440718 -0.09699654579 -0.0004127313878524352 0.0004499007496837913
-0.189085722 -0.09699654579 -0.00041501436034373934 0.0004277679159210315
-0.183764264 -0.09699654579 -0.0004160535106554807 0.0004054576075953515
-0.178442806 -0.09699654579 -0.00041605176343958614 0.00038288119503105826
-0.173121348 -0.09699654579 -0.00041507431561086 0.00036352256340135125
-0.16779989 -0.09699654579 -0.0004126098887278262 0.00034527242046543123
-0.1624784321 -0.09699654579 -0.00041007245193300397 0.0003268037124741773
-0.1571569741 -0.09699654579 -0.00040715256384638314 0.000310673125453617
-0.1518355161 -0.09699654579 -0.000404089623364395 0.00029612078721655955
-0.1465140581 -0.09699654579 -0.0004009570791315294 0.0002812380103724153
-0.1411926001 -0.09699654579 -0.00039778477685449955 0.00026717598516312396
-0.1358711421 -0.09699654579 -0.00039397879811471626 0.0002542914328379206
-0.1305496842 -0.09699654579 -0.0003900160182296945 0.00024147621564290985
-0.1252282262 -0.09699654579 -0.0003860692551403435 0.00022851598690274411
-0.1199067682 -0.09699654579 -0.00038183017722434967 0.00021677148056220972
-0.1145853102 -0.09699654579 -0.00037751625119232063 0.00020558288104078254
-0.1092638522 -0.09699654579 -0.0003731062971300859 0.0001943290330859482
-0.1039423943 -0.09699654579 -0.000368696811232652 0.00018316822218778742
-0.09862093627 -0.09699654579 -0.00036452588614173484 0.00017370647376882873
-0.09329947084 -0.09699654579 -0.00036027409041449035 0.0001642302520569803
-0.08797801286 -0.09699654579 -0.0003559445146963993 0.00015476431472312817
-0.08265655488 -0.09699654579 -0.00035184014003079845 0.00014533983025740896
-0.0773350969 -0.09699654579 -0.0003479754421890842 0.00013698861865436677
-0.07201363891 -0.09699654579 -0.00034405974392933173 0.00012868874592630893
-0.06669218093 -0.09699654579 -0.00034013742779160304 0.00012038184050195989
-0.06137072667 -0.09699654579 -0.00033608754075485983 0.00011205258501333292
-0.05604926869 -0.09699654579 -0.0003322868011571919 0.00010427763500125984
-0.05072781071 -0.09699654579 -0.0003285086195781963 9.672165946444319e-05
-0.045406349 -0.09699654579 -0.00032472813644852 8.916573052977328e-05
-0.04008489102 -0.09699654579 -0.0003208911716581707 8.16146230629577e-05
-0.03476343304 -0.09699654579 -0.00031721754286855177 7.424008566867827e-05
-0.02944197692 -0.09699654579 -0.0003136969827096993 6.738936316166086e-05
-0.02412051894 -0.09699654579 -0.0003101789065687592 6.051836325590954e-05
-0.01879905909 -0.09699654579 -0.00030666556537849 5.366785504420838e-05
-0.01347760204 -0.09699654579 -0.00030313294571473093 4.6831665501330916e-05
-0.00815614406 -0.09699654579 -0.000299906300252292 4.013144152550319e-05
-0.00283468538 -0.09699654579 -0.00029680210734341707 3.363633654921122e-05
0.002486772602 -0.09699654579 -0.00029369553514581667 2.71531964569015e-05
0.007808230817 -0.09699654579 -0.0002905869614077043 2.0666165048699983e-05
0.0131296888 -0.09699654579 -0.0002874817520037987 1.4177212323513817e-05
0.01845114678 -0.09699654579 -0.0002844495995541439 7.736538339189472e-06
0.02377260476 -0.09699654579 -0.000281388506801507 1.4215588963639646e-06
0.02909406275 -0.09699654579 -0.0002783260914725417 -4.887002048331101e-06
0.03441552073 -0.09699654579 -0.0002752623982317311 -1.119981511254639e-05
0.03973697871 -0.09699654579 -0.0002722017988147826 -1.751202297416106e-05
0.04505843669 -0.09699654579 -0.0002691643853690092 -2.3682952148841028e-05
0.05037989467 -0.09699654579 -0.0002660306311693618 -2.9463705006618523e-05
0.05570135266 -0.09699654579 -0.00026290883778945897 -3.523008513267411e-05
0.06102281436 -0.09699654579 -0.00025977209690528644 -4.099513747861117e-05
0.06634426862 -0.09699654579 -0.0002566456527110093 -4.677535226091951e-05
0.0716657266 -0.09699654579 -0.00025352067611567226 -5.255563173492958e-05
0.07698718458 -0.09699654579 -0.0002507024061043294 -5.79401904236237e-05
0.08230864257 -0.09699654579 -0.0002478674507549065 -6.324979372415939e-05
0.08763010055 -0.09699654579 -0.0002450674214880918 -6.855294929192156e-05
0.09295155853 -0.09699654579 -0.0002422583539720336 -7.38591592309694e-05
0.09827301651 -0.09699654579 -0.00023943512406776195 -7.917369877713358e-05
0.1035944745 -0.09699654579 -0.0002367370107876345 -8.451024446483592e-05
0.1089159325 -0.09699654579 -0.0002342056581284899 -8.975041963557973e-05
0.1142373979 -0.09699654579 -0.00023169665424498058 -9.499048125834598e-05
0.1195588559 -0.09699654579 -0.00022916476645206665 -0.00010024532829874321
0.1248803139 -0.09699654579 -0.00022662854337796823 -0.00010550025314348472
0.1302017719 -0.09699654579 -0.00022412660350459407 -0.00011073753095636433
0.1355232298 -0.09699654579 -0.00022162078602401322 -0.00011610969433214524
0.1408446878 -0.09699654579 -0.00021911366379121275 -0.00012146315191065299
0.1461661458 -0.09699654579 -0.00021656245399214935 -0.0001268368643803029
0.1514876038 -0.09699654579 -0.00021394818025538342 -0.00013220446189696948
0.1568090618 -0.09699654579 -0.00021133886604601102 -0.00013757101677663557
0.1621305197 -0.09699654579 -0.0002087462537126443 -0.00014292035005935807
0.1674519777 -0.09699654579 -0.00020595833395420355 -0.00014836028802633317
0.1727734357 -0.09699654579 -0.00020311707282789565 -0.00015375585822160912
0.1780948937 -0.09699654579 -0.00020023504495781595 -0.000159201128017823
0.1834163517 -0.09699654579 -0.00019739148806821637 -0.00016461876335597102
0.1887378097 -0.09699654579 -0.00019452216619733208 -0.00017001885172833727
0.1940592676 -0.09699654579 -0.00019165487356147 -0.0001754189795736707
0.1993807256 -0.09699654579 -0.0001886788281257281 -0.0001806371678458396
0.2047021836 -0.09699654579 -0.00018565117537611692 -0.00018576233739525037
0.2100236416 -0.09699654579 -0.0001826708724156009 -0.00019087333135608866
0.2153450996 -0.09699654579 -0.00017966026331546568 -0.00019599197651965207
0.2206665576 -0.09699654579 -0.00017664618371101862 -0.00020111047792847038
0.2259880155 -0.09699654579 -0.0001736694625034545 -0.0002062078542341801
0.2313094735 -0.09699654579 -0.00017067480082484445 -0.00021134255428426115
0.2366309315 -0.09699654579 -0.00016761919752114732 -0.0002164251015928479
0.2419523895 -0.09699654579 -0.0001645654851334768 -0.00022150723856918797
0.2472738475 -0.09699654579 -0.00016151153747286564 -0.0002265896254874558
0.2525953054 -0.09699654579 -0.0001584864766501074 -0.00023165678222104543
0.2579167783 -0.09699654579 -0.0001554394137342619 -0.00023672531119126828
0.2632382214 -0.09699654579 -0.00015226555066019613 -0.00024182420840784417
0.2685596943 -0.09699654579 -0.00014905615746870139 -0.0002468987021904174
0.2738811374 -0.09699654579 -0.000145884331189962 -0.0002519510434588992
0.2792026103 -0.09699654579 -0.00014267720112798432 -0.0002570005014308008
0.2845240533 -0.09699654579 -0.0001395102135268962 -0.0002620333217993577
0.2898455262 -0.09699654579 -0.00013630450451537947 -0.0002670979089460495
0.2951669693 -0.09699654579 -0.00013295007109834721 -0.0002720738093092564
0.3004884422 -0.09699654579 -0.00012957743561791568 -0.00027702071242696155
0.3058098853 -0.09699654579 -0.00012619846697503842 -0.0002819571839677916
0.3111313581 -0.09699654579 -0.00012282024711145212 -0.0002868938857598678
0.3164528012 -0.09699654579 -0.00011948351340923022 -0.0002918132807250239
0.3217742741 -0.09699654579 -0.00011611837131305599 -0.0002967536008778681
0.3270957172 -0.09699654579 -0.00011255279197911577 -0.00030151996449048415
0.3324171901 -0.09699654579 -0.00010898699607343932 -0.0003062865221625472
0.3377386332 -0.09699654579 -0.00010547390074486449 -0.00031104177002575146
0.343060106 -0.09699654579 -0.00010196711023024385 -0.00031578891012994386
0.3483815491 -0.09699654579 -9.842317444079147e-05 -0.00032054703360598726
0.353703022 -0.09699654579 -9.488625155748719e-05 -0.00032523443450068997
0.3590244651 -0.09699654579 -9.138821298306754e-05 -0.00032971177137292306
0.364345938 -0.09699654579 -8.787063050607206e-05 -0.0003342098736966435
0.369667381 -0.09699654579 -8.439209447251484e-05 -0.0003387208472891834
0.3749888539 -0.09699654579 -8.092199439264191e-05 -0.0003432225211204108
0.380310297 -0.09699654579 -7.748847977008235e-05 -0.00034772205486873284
0.3856317699 -0.09699654579 -7.416050477711177e-05 -0.000352245386539138
0.390953213 -0.09699654579 -7.090185650493064e-05 -0.00035672114270610025
0.3962746859 -0.09699654579 -6.760567566840735e-05 -0.00036121773088849073
0.4015961289 -0.09699654579 -6.433424210440412e-05 -0.0003657013497351622
0.4069176018 -0.09699654579 -6.102249651643313e-05 -0.00037020688594999976
0.4122390449 -0.09699654579 -5.774105420254508e-05 -0.0003747973182618735
0.4175605178 -0.09699654579 -5.4464746646692796e-05 -0.00037945086511924803
0.4228819609 -0.09699654579 -5.1219645442060454e-05 -0.00038407489207243744
0.4282034338 -0.09699654579 -4.792245756506253e-05 -0.0003887205321836064
0.4335248768 -0.09699654579 -4.468005902796774e-05 -0.0003933396585960007
0.4388463497 -0.09699654579 -4.140071210834755e-05 -0.00039802711513327636
0.4441677928 -0.09699654579 -3.8110906021583414e-05 -0.00040269222051112673
0.4494892657 -0.09699654579 -3.4818223273317116e-05 -0.00040740837231805686
0.4548107088 -0.09699654579 -3.150437139016257e-05 -0.000412102235075897
0.4601321816 -0.09699654579 -2.8233321871157994e-05 -0.00041677119051876567
0.4654536247 -0.09699654579 -2.4961826337965844e-05 -0.0004215299840813541
0.4707750976 -0.09699654579 -2.1790899040833777e-05 -0.00042626999289148085
0.4760965407 -0.09699654579 -1.8574591408776578e-05 -0.0004310370675500059
0.4814180136 -0.09699654579 -1.5401982030547325e-05 -0.0004357822837550359
0.4867394567 -0.09699654579 -1.2162204978742064e-05 -0.0004405680730390415
0.4920609295 -0.09699654579 -9.075566093310478e-06 -0.000445540696766475
0.4973823726 -0.09699654579 -6.020346626247664e-06 -0.00045052670165848964
0.5027038455 -0.09699654579 -3.071211172788793e-06 -0.000455462730758388
0.5080252886 -0.09699654579 3.071065632891676e-09 -0.0004604591018755197
0.5133467317 -0.09699654579 2.9545440041828378e-06 -0.00046565065234260893
0.5186682343 -0.09699654579 5.730424638096702e-06 -0.0004709810026992888
0.5239896774 -0.09699654579 8.656377132563173e-06 -0.0004763768401990513
0.5293111205 -0.09699654579 1.1456173591032436e-05 -0.00048171891181360244
0.5346325636 -0.09699654579 1.4190948054307e-05 -0.0004873569103140028
0.5399540663 -0.09699654579 1.6801098686772168e-05 -0.0004932769439327591
0.5452755094 -0.09699654579 1.9548301829915102e-05 -0.000499235842962685
0.5505969524 -0.09699654579 2.2137454557534643e-05 -0.0005051510046966567
0.5559183955 -0.09699654579 2.455088117731144e-05 -0.0005116506807215099
0.5612398982 -0.09699654579 2.719588196144633e-05 -0.0005183558961666382
0.5665613413 -0.09699654579 2.9797679629134843e-05 -0.0005250510552452734
0.5718827844 -0.09699654579 3.212615016102289e-05 -0.0005321129257771034
0.5772042274 -0.09699654579 3.459271706107341e-05 -0.0005397680811738573
0.5825257301 -0.09699654579 3.704926614178605e-05 -0.0005474238018400554
0.5878471732 -0.09699654579 3.9428835914928276e-05 -0.0005555250510571186
0.5931686163 -0.09699654579 4.19200020716507e-05 -0.0005643673641881021
0.5984900594 -0.09699654579 4.424352224159516e-05 -0.0005732681344144089
0.6038115621 -0.09699654579 4.692863248063222e-05 -0.0005830008513889633
0.6091330051 -0.09699654579 4.929222549531495e-05 -0.0005934038667296563
0.6144544482 -0.09699654579 5.219541001736243e-05 -0.0006040064302722042
0.6197758913 -0.09699654579 5.517154390515968e-05 -0.00061597127302067
0.625097394 -0.09699654579 5.8221745491509694e-05 -0.0006282177137135045
0.6304188371 -0.09699654579 6.180997172253584e-05 -0.000641429198671195
0.6357402802 -0.09699654579 6.527446826738797e-05 -0.0006555789429630866
0.6410617828 -0.09699654579 6.964325675780336e-05 -0.0006706549181870716
0.6463832259 -0.09699654579 7.467361354353973e-05 -0.0006869307712259841
0.651704669 -0.09699654579 8.008376949815762e-05 -0.0007044282547674863
0.6570261121 -0.09699654579 8.728980824711722e-05 -0.0007232758982275744
0.6623476148 -0.09699654579 9.530468516180798e-05 -0.0007431636974545506
0.6676690578 -0.09699654579 0.00010438567718691235 -0.0007639351596864202
0.6729905009 -0.09699654579 0.00011538823855234475 -0.0007865959333135308
0.678311944 -0.09699654579 0.00012800531365321957 -0.0008108859716351828
0.6836334467 -0.09699654579 0.00014289216216689307 -0.0008358876748883123
0.6889548898 -0.09699654579 0.00016092711288835348 -0.0008622619802065774
0.6942763329 -0.09699654579 0.00018244741027689473 -0.0008897282028933231
0.6995977759 -0.09699654579 0.00020730140710489522 -0.000918546796888534
0.7049192786 -0.09699654579 0.00023575048590585555 -0.0009474797347334442
0.7102407217 -0.09699654579 0.00026879556966932094 -0.000976372534247493
0.7155621648 -0.09699654579 0.00030792842949229406 -0.0010045313839582718
0.7208836079 -0.09699654579 0.00035252962842322207 -0.0010323647633001044
0.7262051105 -0.09699654579 0.0004025608140038776 -0.001058057035327086
0.7315265536 -0.09699654579 0.0004582517056198228 -0.001080405841446228
0.7368479967 -0.09699654579 0.0005198603281261013 -0.0010993731409446679
0.7421694398 -0.09699654579 0.0005879383486522025 -0.0011114903837889422
0.7474909425 -0.09699654579 0.0006618009446573554 -0.0011189725096170532
0.7528123856 -0.09699654579 0.0007409453459720067 -0.001116960422293092
0.7581338286 -0.09699654579 0.0008233377029504121 -0.0011068099200485955
-0.3008363545 -0.09367749095 -6.100519324006154e-05 0.0007396060461835152
-0.2955148816 -0.09367749095 -8.285244005676669e-05 0.0007423315006039042
-0.2901934385 -0.09367749095 -0.00010672244088449749 0.0007424614834899339
-0.2848719656 -0.09367749095 -0.00012931243453824965 0.0007419813655738618