VARIABLES = X,Y,phix,phiy
ZONE I=200,J=200,F=POINT 
-0.3008363545 -0.1003156006 -0.000855134480726046 0.0005518522792161813
-0.2955148816 -0.1003156006 -0.0008600533267747677 0.000550018793038758
-0.2901934385 -0.1003156006 -0.0008664094957353298 0.0005457453382711993
-0.2848719656 -0.1003156006 -0.0008734235672137942 0.000541778814366352
-0.2795505226 -0.1003156006 -0.000880669247079307 0.0005366715282070212
-0.2742290497 -0.1003156006 -0.0008884050555177072 0.0005296432920798622
-0.2689076066 -0.1003156006 -0.0008963278016741121 0.0005229833554252993
-0.2635861337 -0.1003156006 -0.0009018045119322291 0.0005178205618523871
-0.2582646906 -0.1003156006 -0.0009085554684996563 0.000512233799043746
-0.2529432178 -0.1003156006 -0.0009154443066277374 0.0005058384234316088
-0.2476217598 -0.1003156006 -0.0009228889537829493 0.0005003818168809148
-0.2423003018 -0.1003156006 -0.0009264308277123057 0.0004948583432563332
-0.2369788438 -0.1003156006 -0.0009293242675293309 0.00048782628402021746
-0.2316573858 -0.1003156006 -0.0009326073460729516 0.0004799520051420651
-0.2263359278 -0.1003156006 -0.0009347881504662374 0.00047229884216265326
-0.2210144699 -0.1003156006 -0.0009392454065058852 0.0004647516463261258
-0.2156930119 -0.1003156006 -0.0009439676308351794 0.000456851911981033
-0.2103715539 -0.1003156006 -0.0009484241042097167 0.0004489258456425541
-0.2050500959 -0.1003156006 -0.0009506692268256743 0.0004417042478220624
-0.1997286379 -0.1003156006 -0.0009533708645571236 0.000433473056853111
-0.19440718 -0.1003156006 -0.0009564736458596974 0.00042538650700708083
-0.189085722 -0.1003156006 -0.0009594607947851887 0.0004163342597159938
-0.183764264 -0.1003156006 -0.0009619793328037624 0.0004052586591359135
-0.178442806 -0.1003156006 -0.0009649892281864826 0.00039430452796949494
-0.173121348 -0.1003156006 -0.0009655589812907424 0.0003829780985552062
-0.16779989 -0.1003156006 -0.0009660935904595275 0.0003713610948676138
-0.1624784321 -0.1003156006 -0.0009660384875301975 0.0003592093097192538
-0.1571569741 -0.1003156006 -0.000964650880099684 0.0003483488591673789
-0.1518355161 -0.1003156006 -0.0009627741948143145 0.0003372436665116703
-0.1465140581 -0.1003156006 -0.0009607327291489065 0.00032608488637846534
-0.1411926001 -0.1003156006 -0.0009586746365978689 0.0003156663512366484
-0.1358711421 -0.1003156006 -0.0009547292815024422 0.0003059478266038072
-0.1305496842 -0.1003156006 -0.0009507814526696645 0.00029622933869409297
-0.1252282262 -0.1003156006 -0.0009467837864813542 0.0002862770728434695
-0.1199067682 -0.1003156006 -0.0009421401227399511 0.00027786457005723607
-0.1145853102 -0.1003156006 -0.0009372602514674965 0.0002694557284191183
-0.1092638522 -0.1003156006 -0.0009323455057506973 0.0002609554880830782
-0.1039423943 -0.1003156006 -0.0009274519950395235 0.00025281227963219977
-0.09862093627 -0.1003156006 -0.000921913001785542 0.0002452678432653967
-0.09329947084 -0.1003156006 -0.0009162015222801367 0.0002377181836604947
-0.08797801286 -0.1003156006 -0.0009104938374462327 0.0002301685355991832
-0.08265655488 -0.1003156006 -0.0009049884781600008 0.0002227812944707574
-0.0773350969 -0.1003156006 -0.0008988732895960661 0.00021611080342890892
-0.07201363891 -0.1003156006 -0.0008927037148881254 0.00020951362667035917
-0.06669218093 -0.1003156006 -0.0008865410189402446 0.0002029163196695999
-0.06137072667 -0.1003156006 -0.0008803263695648516 0.00019624643128504887
-0.05604926869 -0.1003156006 -0.000873997178922399 0.00019044755816457188
-0.05072781071 -0.1003156006 -0.0008675188884391368 0.00018468455942506723
-0.045406349 -0.1003156006 -0.0008610530608000687 0.00017896022153063738
-0.04008489102 -0.1003156006 -0.0008544998299327863 0.00017323523460074193
-0.03476343304 -0.1003156006 -0.0008479971227460228 0.00016782894545603407
-0.02944197692 -0.1003156006 -0.0008412238760833219 0.00016290624484199226
-0.02412051894 -0.1003156006 -0.0008344158257570628 0.00015797493407723382
-0.01879905909 -0.1003156006 -0.0008275880227332355 0.00015302147788042123
-0.01347760204 -0.1003156006 -0.0008207876401476002 0.00014809943845436502
-0.00815614406 -0.1003156006 -0.0008139190271453258 0.00014335556755246248
-0.00283468538 -0.1003156006 -0.0008068065493355332 0.00013866885858639878
0.002486772602 -0.1003156006 -0.0007996405311990246 0.0001339480641799443
0.007808230817 -0.1003156006 -0.0007924741621396298 0.0001292211932703295
0.0131296888 -0.1003156006 -0.0007853476979486247 0.0001245284308828643
0.01845114678 -0.1003156006 -0.000777962601508742 0.00012010049717081566
0.02377260476 -0.1003156006 -0.0007701908995436656 0.00011582324781045925
0.02909406275 -0.1003156006 -0.0007623887081229466 0.00011150367206310174
0.03441552073 -0.1003156006 -0.0007545895232085116 0.00010718419815206058
0.03973697871 -0.1003156006 -0.0007468152887381461 0.0001029004344495038
0.04505843669 -0.1003156006 -0.0007389825665851768 9.884154271038043e-05
0.05037989467 -0.1003156006 -0.0007306878079342649 9.517606372366992e-05
0.05570135266 -0.1003156006 -0.0007223603483925209 9.151078240599983e-05
0.06102281436 -0.1003156006 -0.0007140218900730077 8.7814678568316e-05
0.06634426862 -0.1003156006 -0.000705721284194254 8.415848539494416e-05
0.0716657266 -0.1003156006 -0.000697429245670863 8.050141977177789e-05
0.07698718458 -0.1003156006 -0.0006888541449871844 7.739329318233789e-05
0.08230864257 -0.1003156006 -0.0006801919916974697 7.431457683808704e-05
0.08763010055 -0.1003156006 -0.0006715079115518863 7.124635661518186e-05
0.09295155853 -0.1003156006 -0.0006628345131515669 6.819138532755452e-05
0.09827301651 -0.1003156006 -0.0006541839191332426 6.512733440359077e-05
0.1035944745 -0.1003156006 -0.0006454007186678072 6.223088985476857e-05
0.1089159325 -0.1003156006 -0.0006361468005523615 5.969839655010772e-05
0.1142373979 -0.1003156006 -0.0006268921828472367 5.716569111891106e-05
0.1195588559 -0.1003156006 -0.0006176692262214451 5.4694560910832045e-05
0.1248803139 -0.1003156006 -0.0006084350136172903 5.222000000232481e-05
0.1302017719 -0.1003156006 -0.0005991899364179356 4.9704392189097486e-05
0.1355232298 -0.1003156006 -0.0005896616172928611 4.7552014094592465e-05
0.1408446878 -0.1003156006 -0.0005798433955386491 4.570793377873382e-05
0.1461661458 -0.1003156006 -0.0005700363047618733 4.386301211490858e-05
0.1514876038 -0.1003156006 -0.0005602177521152387 4.201825276643182e-05
0.1568090618 -0.1003156006 -0.0005504100652928607 4.017328959942604e-05
0.1621305197 -0.1003156006 -0.0005406058439578698 3.833081413809056e-05
0.1674519777 -0.1003156006 -0.0005305484043586793 3.673099471187136e-05
0.1727734357 -0.1003156006 -0.0005202969344293049 3.513757720129845e-05
0.1780948937 -0.1003156006 -0.0005100428335040218 3.354469434980834e-05
0.1834163517 -0.1003156006 -0.0004997965088710867 3.195075279099892e-05
0.1887378097 -0.1003156006 -0.0004895353571792679 3.0404703958872032e-05
0.1940592676 -0.1003156006 -0.00047927290976583476 2.8861388392752696e-05
0.1993807256 -0.1003156006 -0.00046821936588711864 2.73650841060299e-05
0.2047021836 -0.1003156006 -0.0004568678031725212 2.588897068874827e-05
0.2100236416 -0.1003156006 -0.0004455123477785015 2.4420906915657458e-05
0.2153450996 -0.1003156006 -0.00043416926288095467 2.3127346125668207e-05
0.2206665576 -0.1003156006 -0.0004228136575335228 2.1726122297620163e-05
0.2259880155 -0.1003156006 -0.00041146511615570655 2.0328579644401117e-05
0.2313094735 -0.1003156006 -0.00039884433549054824 1.9320393401457608e-05
0.2366309315 -0.1003156006 -0.00038586287024276923 1.858996373098615e-05
0.2419523895 -0.1003156006 -0.00037290376691912906 1.7879832293527107e-05
0.2472738475 -0.1003156006 -0.0003599460161463348 1.717099557196545e-05
0.2525953054 -0.1003156006 -0.00034702428320388024 1.646315769429599e-05
0.2579167783 -0.1003156006 -0.0003341439760986787 1.5859172885182575e-05
0.2632382214 -0.1003156006 -0.00032021377046744995 1.6090083217883915e-05
0.2685596943 -0.1003156006 -0.0003059418627891441 1.656348812265323e-05
0.2738811374 -0.1003156006 -0.00029163849088856275 1.6954489740640095e-05
0.2792026103 -0.1003156006 -0.0002773614726735626 1.7413026928683225e-05
0.2845240533 -0.1003156006 -0.0002631456662130917 1.7938086657496432e-05
0.2898455262 -0.1003156006 -0.0002489378279688689 1.8463548458255133e-05
0.2951669693 -0.1003156006 -0.00023365841088633917 1.965864863205642e-05
0.3004884422 -0.1003156006 -0.0002181962978860202 2.1025192087867855e-05
0.3058098853 -0.1003156006 -0.0002027774974381485 2.2523807574699585e-05
0.3111313581 -0.1003156006 -0.0001873619751253315 2.402272507944893e-05
0.3164528012 -0.1003156006 -0.0001719493032001054 2.5521421935976655e-05
0.3217742741 -0.1003156006 -0.00015654537227805708 2.7048927825912267e-05
0.3270957172 -0.1003156006 -0.0001393499593410659 2.9469209993692152e-05
0.3324171901 -0.1003156006 -0.0001221259026893807 3.185947126300684e-05
0.3377386332 -0.1003156006 -0.00010489916271797138 3.4250326840212676e-05
0.343060106 -0.1003156006 -8.768251899824751e-05 3.664542348115992e-05
0.3483815491 -0.1003156006 -7.059279950604812e-05 3.9302639941129104e-05
0.353703022 -0.1003156006 -5.2860473046949226e-05 4.240174063580734e-05
0.3590244651 -0.1003156006 -3.357187646768092e-05 4.654731741434667e-05
0.364345938 -0.1003156006 -1.4290131304876987e-05 5.0694964109686453e-05
0.369667381 -0.1003156006 4.798617445202861e-06 5.5097883039042635e-05
0.3749888539 -0.1003156006 2.3936298592635825e-05 5.9447117348177665e-05
0.380310297 -0.1003156006 4.31040165876718e-05 6.373971528668414e-05
0.3856317699 -0.1003156006 6.382345588119899e-05 6.929736515889672e-05
0.390953213 -0.1003156006 8.486775443220249e-05 7.556790623596904e-05
0.3962746859 -0.1003156006 0.00010589690300792327 8.184316272077495e-05
0.4015961289 -0.1003156006 0.00012686654361415407 8.809756447138464e-05
0.4069176018 -0.1003156006 0.00014783329807080815 9.43551232414194e-05
0.4122390449 -0.1003156006 0.00016945851117375015 0.00010167797147617821
0.4175605178 -0.1003156006 0.0001925592681267579 0.00011013149182589657
0.4228819609 -0.1003156006 0.0002157741819766878 0.00011843561539544782
0.4282034338 -0.1003156006 0.00023897921232164885 0.00012677235356294068
0.4335248768 -0.1003156006 0.0002618513303759893 0.00013544968130144784
0.4388463497 -0.1003156006 0.00028538267970192277 0.00014479955715458937
0.4441677928 -0.1003156006 0.00031081121707894675 0.00015604869681233607
0.4494892657 -0.1003156006 0.00033614743549958693 0.00016738876419331245
0.4548107088 -0.1003156006 0.000361170682424554 0.00017898080790992751
0.4601321816 -0.1003156006 0.0003863975779058272 0.00019038949148198365
0.4654536247 -0.1003156006 0.0004125009354878209 0.00020297900396351454
0.4707750976 -0.1003156006 0.0004398681841246274 0.00021762339036128633
0.4760965407 -0.1003156006 0.0004668837847717291 0.00023246181374327266
0.4814180136 -0.1003156006 0.0004939016560913313 0.0002473015422568993
0.4867394567 -0.1003156006 0.0005209453876079958 0.0002621360097360932
0.4920609295 -0.1003156006 0.0005495058011788311 0.0002796397329818689
0.4973823726 -0.1003156006 0.0005783392820241317 0.0002979590837135131
0.5027038455 -0.1003156006 0.0006071621395666801 0.0003162560311347315
0.5080252886 -0.1003156006 0.0006359899560641033 0.00033456003904592456
0.5133467317 -0.1003156006 0.0006649227863614725 0.0003548616911286825
0.5186682343 -0.1003156006 0.0006953615125255395 0.00037702128348912536
0.5239896774 -0.1003156006 0.0007258459723841243 0.00039913300553857934
0.5293111205 -0.1003156006 0.0007561031949563407 0.000421353951880913
0.5346325636 -0.1003156006 0.000786339478281171 0.00044544287819672627
0.5399540663 -0.1003156006 0.0008178430912813849 0.0004716334977243114
0.5452755094 -0.1003156006 0.000849674361279756 0.0004977239570587303
0.5505969524 -0.1003156006 0.0008808544601132021 0.0005239716411247758
0.5559183955 -0.1003156006 0.0009124730108423252 0.0005532254992034344
0.5612398982 -0.1003156006 0.0009452982514945103 0.0005833572772624093
0.5665613413 -0.1003156006 0.0009779610922192553 0.00061351494892507
0.5718827844 -0.1003156006 0.0010101066365475013 0.0006453258981500954
0.5772042274 -0.1003156006 0.0010435740347225356 0.0006794587118780646
0.5825257301 -0.1003156006 0.0010771511921398415 0.0007135483177705911
0.5878471732 -0.1003156006 0.0011103824575868755 0.0007493903070815405
0.5931686163 -0.1003156006 0.0011445393084658995 0.0007872573764091333
0.5984900594 -0.1003156006 0.0011788044397079546 0.00082503003395501
0.6038115621 -0.1003156006 0.0012136949693691678 0.0008656222359759118
0.6091330051 -0.1003156006 0.0012484168470565525 0.0009068087630145568
0.6144544482 -0.1003156006 0.0012840255641773917 0.0009496539816121299
0.6197758913 -0.1003156006 0.0013194009637702798 0.0009942819374279144
0.625097394 -0.1003156006 0.0013550694974284127 0.0010399405837879757
0.6304188371 -0.1003156006 0.0013914050521210322 0.0010877084246402385
0.6357402802 -0.1003156006 0.0014272137704532002 0.001136600486848056
0.6410617828 -0.1003156006 0.0014640509537998563 0.0011868767876917522
0.6463832259 -0.1003156006 0.0015010513639642255 0.001238394623555466
0.651704669 -0.1003156006 0.0015385011469397844 0.0012906280105533232
0.6570261121 -0.1003156006 0.0015762070401213303 0.0013450280208257932
0.6623476148 -0.1003156006 0.001615028555627589 0.0014004434781068839
0.6676690578 -0.1003156006 0.0016545997832069065 0.0014570987814564664
0.6729905009 -0.1003156006 0.0016958208637476275 0.0015159872909260145
0.678311944 -0.1003156006 0.0017378472886827427 0.0015766061914135637
0.6836334467 -0.1003156006 0.0017815600660410287 0.0016387107805293341
0.6889548898 -0.1003156006 0.0018279080252313674 0.0017026782619081124
0.6942763329 -0.1003156006 0.0018763438607109033 0.0017697515746030645
0.6995977759 -0.1003156006 0.0019272653224304023 0.0018390811928106524
0.7049192786 -0.1003156006 0.001980381873074527 0.0019113877448558498
0.7102407217 -0.1003156006 0.0020372329813114947 0.0019870277167001963
0.7155621648 -0.1003156006 0.002097571335876867 0.002067970955822274
0.7208836079 -0.1003156006 0.002160737390444079 0.002154141061704969
0.7262051105 -0.1003156006 0.002227392809420716 0.002245252743063798
0.7315265536 -0.1003156006 0.002298201123362695 0.002343771115483797
0.7368479967 -0.1003156006 0.0023738174411216087 0.0024520857598549265
0.7421694398 -0.1003156006 0.0024534380591398493 0.00256881352935973
0.7474909425 -0.1003156006 0.002530523239684252 0.002693520859955487
0.7528123856 -0.1003156006 0.0026141384461714923 0.0028325256348456476
0.7581338286 -0.1003156006 0.0026995889469493793 0.0029834529243098137
-0.3008363545 -0.09699654579 -0.0008556711859087921 0.0005561537371420733
-0.2955148816 -0.09699654579 -0.0008621580836732635 0.000553531825011217
-0.2901934385 -0.09699654579 -0.0008669707131207469 0.0005510138077262932
-0.2848719656 -0.09699654579 -0.0008739031979464528 0.000546723297311063
-0.2795505226 -0.09699654579 -0.0008812022616239214 0.0005408890982597552
-0.2742290497 -0.09699654579 -0.0008888715429282992 0.0005348533867916232
-0.2689076066 -0.09699654579 -0.0008972529594149129 0.0005275560167780529
-0.2635861337 -0.09699654579 -0.0009030474066954656 0.0005208017555127041
-0.2582646906 -0.09699654579 -0.0009102019956355001 0.0005152504974385356
-0.2529432178 -0.09699654579 -0.0009174344716667736 0.0005096177955917035
-0.2476217598 -0.09699654579 -0.0009254214033094176 0.0005038681712334919
-0.2423003018 -0.09699654579 -0.0009301993718030137 0.0004984045024222363
-0.2369788438 -0.09699654579 -0.0009334895225096408 0.0004908355150209674
-0.2316573858 -0.09699654579 -0.0009365865425341422 0.0004825433479105636
-0.2263359278 -0.09699654579 -0.0009392483469770521 0.0004736953755637787
-0.2210144699 -0.09699654579 -0.0009426331305534223 0.00046637557096457433
-0.2156930119 -0.09699654579 -0.0009472526804157092 0.00045900503296028756
-0.2103715539 -0.09699654579 -0.0009525376227846029 0.00045171228413623516
-0.2050500959 -0.09699654579 -0.000955565433579577 0.000444626967827783
-0.1997286379 -0.09699654579 -0.0009587062384801994 0.0004365541339127312
-0.19440718 -0.09699654579 -0.0009620522260658538 0.00042873682088042406
-0.189085722 -0.09699654579 -0.0009651937476433387 0.00041884200434133203
-0.183764264 -0.09699654579 -0.0009688419062527032 0.00040735641763064913
-0.178442806 -0.09699654579 -0.0009713253760686402 0.00039505103305314035
-0.173121348 -0.09699654579 -0.0009722078442547686 0.0003835277958021763
-0.16779989 -0.09699654579 -0.0009719008932301211 0.0003713670808940826
-0.1624784321 -0.09699654579 -0.0009720746782047769 0.00035892314625553484
-0.1571569741 -0.09699654579 -0.0009706671575041257 0.00034738685248444847
-0.1518355161 -0.09699654579 -0.0009688144613390892 0.00033601683174638104
-0.1465140581 -0.09699654579 -0.000967120816403761 0.0003243779646142857
-0.1411926001 -0.09699654579 -0.0009646402020467368 0.0003136012045904799
-0.1358711421 -0.09699654579 -0.0009606256562751863 0.00030360747778722575
-0.1305496842 -0.09699654579 -0.0009563667520920487 0.0002935781727154411
-0.1252282262 -0.09699654579 -0.0009523850425357617 0.0002835611221229582
-0.1199067682 -0.09699654579 -0.0009478112813781114 0.0002747638304304242
-0.1145853102 -0.09699654579 -0.0009428047715418826 0.0002663320163260704
-0.1092638522 -0.09699654579 -0.0009378448727685957 0.0002577862898085431
-0.1039423943 -0.09699654579 -0.0009328495069773948 0.0002494388512342906
-0.09862093627 -0.09699654579 -0.000927144771825388 0.0002418566889281081
-0.09329947084 -0.09699654579 -0.000921442701503332 0.0002342025436311269
-0.08797801286 -0.09699654579 -0.0009157018900865669 0.00022650256210875771
-0.08265655488 -0.09699654579 -0.0009100520761368638 0.0002190726524115321
-0.0773350969 -0.09699654579 -0.0009038404008455814 0.0002123732002941431
-0.07201363891 -0.09699654579 -0.0008975403593693491 0.00020568800871116082
-0.06669218093 -0.09699654579 -0.0008912779590094856 0.0001990152548331709
-0.06137072667 -0.09699654579 -0.0008850505861592192 0.00019228522480439772
-0.05604926869 -0.09699654579 -0.0008786678795683378 0.00018637448921658272
-0.05072781071 -0.09699654579 -0.0008721006453732927 0.0001806257725884817
-0.045406349 -0.09699654579 -0.0008655322612937953 0.00017487703027995087
-0.04008489102 -0.09699654579 -0.0008589265487912837 0.0001691006498736437
-0.03476343304 -0.09699654579 -0.0008523325898490443 0.00016364177315244288
-0.02944197692 -0.09699654579 -0.00084545918886025 0.00015867726048326874
-0.02412051894 -0.09699654579 -0.0008386019398209517 0.00015369653572291895
-0.01879905909 -0.09699654579 -0.0008317283422432056 0.00014873334125408655
-0.01347760204 -0.09699654579 -0.0008248265269265205 0.0001437667169555483
-0.00815614406 -0.09699654579 -0.0008178692077767197 0.0001389567553230552
-0.00283468538 -0.09699654579 -0.0008106688449182069 0.00013419535948647622
0.002486772602 -0.09699654579 -0.0008034466250357721 0.00012942766124500576
0.007808230817 -0.09699654579 -0.0007962277229469529 0.00012464802725254247
0.0131296888 -0.09699654579 -0.0007890216442110032 0.00011988533376445627
0.01845114678 -0.09699654579 -0.0007815212419671786 0.00011538190154748776
0.02377260476 -0.09699654579 -0.0007736655126953191 0.00011102282017353415
0.02909406275 -0.09699654579 -0.0007657704758292206 0.0001066606020935604
0.03441552073 -0.09699654579 -0.0007578692615483532 0.00010228831471111033
0.03973697871 -0.09699654579 -0.000750014179904466 9.793488970663336e-05
0.04505843669 -0.09699654579 -0.0007420608066682134 9.381153484216731e-05
0.05037989467 -0.09699654579 -0.0007336702052900069 9.00855048903388e-05
0.05570135266 -0.09699654579 -0.000725269258659471 8.638127106936731e-05
0.06102281436 -0.09699654579 -0.0007168396061998104 8.265425178234615e-05
0.06634426862 -0.09699654579 -0.0007084517903207582 7.893526080746669e-05
0.0716657266 -0.09699654579 -0.0007000676503986749 7.521616736101116e-05
0.07698718458 -0.09699654579 -0.0006914087661630388 7.205980301155452e-05
0.08230864257 -0.09699654579 -0.0006826634293123486 6.892464285260912e-05
0.08763010055 -0.09699654579 -0.0006739380944621733 6.584314145287261e-05
0.09295155853 -0.09699654579 -0.0006652054096808162 6.27295773145326e-05
0.09827301651 -0.09699654579 -0.0006564754025150986 5.960650405293923e-05
0.1035944745 -0.09699654579 -0.0006475895307712406 5.6659917879414694e-05
0.1089159325 -0.09699654579 -0.0006382323455717996 5.406522399531094e-05
0.1142373979 -0.09699654579 -0.0006288990324235299 5.151790064588797e-05
0.1195588559 -0.09699654579 -0.0006195930616326488 4.896372769967418e-05
0.1248803139 -0.09699654579 -0.0006102937751562202 4.640948540901212e-05
0.1302017719 -0.09699654579 -0.0006009587646289444 4.387616858935249e-05
0.1355232298 -0.09699654579 -0.0005913469947364422 4.168802303987008e-05
0.1408446878 -0.09699654579 -0.0005814880183175153 3.981312001059258e-05
0.1461661458 -0.09699654579 -0.0005716359630720197 3.7917426766171084e-05
0.1514876038 -0.09699654579 -0.0005618053263270589 3.6017514701018017e-05
0.1568090618 -0.09699654579 -0.0005519623786596755 3.411841621261742e-05
0.1621305197 -0.09699654579 -0.000542138306387735 3.226927259526292e-05
0.1674519777 -0.09699654579 -0.0005320555474330186 3.053217492355129e-05
0.1727734357 -0.09699654579 -0.0005218127588114363 2.8882486990233186e-05
0.1780948937 -0.09699654579 -0.0005115760804046324 2.716675245455718e-05
0.1834163517 -0.09699654579 -0.0005013404316343143 2.54935716529238e-05
0.1887378097 -0.09699654579 -0.0004910873284812922 2.385969856457586e-05
0.1940592676 -0.09699654579 -0.00048082575446248624 2.222538142511784e-05
0.1993807256 -0.09699654579 -0.00046971538583705794 2.0562939399160583e-05
0.2047021836 -0.09699654579 -0.00045832935684322456 1.889448505417622e-05
0.2100236416 -0.09699654579 -0.00044695283079587396 1.7388623734625723e-05
0.2153450996 -0.09699654579 -0.00043556622240366967 1.586553098137897e-05
0.2206665576 -0.09699654579 -0.0004242000545537018 1.434214443841785e-05
0.2259880155 -0.09699654579 -0.00041282433716049164 1.2844158000267295e-05
0.2313094735 -0.09699654579 -0.00040009879910391806 1.1791683176003902e-05
0.2366309315 -0.09699654579 -0.00038702719101477525 1.0846391857125235e-05
0.2419523895 -0.09699654579 -0.00037394579192790963 9.90099568989747e-06
0.2472738475 -0.09699654579 -0.0003608606917016338 8.955481979526114e-06
0.2525953054 -0.09699654579 -0.00034783289327180864 8.13268302998483e-06
0.2579167783 -0.09699654579 -0.00033484040008331146 7.3569387922594664e-06
0.2632382214 -0.09699654579 -0.0003206781574493821 7.4413101833824316e-06
0.2685596943 -0.09699654579 -0.00030624470302583677 7.715340765314529e-06
0.2738811374 -0.09699654579 -0.00029184782980993797 8.074481884967469e-06
0.2792026103 -0.09699654579 -0.0002775012799738107 8.476957344126118e-06
0.2845240533 -0.09699654579 -0.00026315499794816115 8.89607203579377e-06
0.2898455262 -0.09699654579 -0.00024877604542642405 9.254953530958615e-06
0.2951669693 -0.09699654579 -0.0002333448176507703 1.0346735289826852e-05
0.3004884422 -0.09699654579 -0.0002178139850555225 1.1597148558623119e-05
0.3058098853 -0.09699654579 -0.0002023026076239598 1.2842795182470002e-05
0.3111313581 -0.09699654579 -0.0001867912855820154 1.4089099897075113e-05
0.3164528012 -0.09699654579 -0.0001713156067946709 1.5427932951943937e-05
0.3217742741 -0.09699654579 -0.00015579700266885418 1.68765266088409e-05
0.3270957172 -0.09699654579 -0.00013839075045117232 1.9020431985638515e-05
0.3324171901 -0.09699654579 -0.0001209968018383194 2.1163280741721635e-05
0.3377386332 -0.09699654579 -0.0001036562029008265 2.3436109426779853e-05
0.343060106 -0.09699654579 -8.634148650149688e-05 2.577791311210083e-05
0.3483815491 -0.09699654579 -6.901450345641957e-05 2.8082016696064656e-05
0.353703022 -0.09699654579 -5.092636327983158e-05 3.088788837144412e-05
0.3590244651 -0.09699654579 -3.139343920668871e-05 3.4814538843741866e-05
0.364345938 -0.09699654579 -1.196343972420255e-05 3.886707374971228e-05
0.369667381 -0.09699654579 7.441541771005319e-06 4.2912411960014006e-05
0.3749888539 -0.09699654579 2.680726938554807e-05 4.693957338777797e-05
0.380310297 -0.09699654579 4.607586167646673e-05 5.112308283874267e-05
0.3856317699 -0.09699654579 6.686980663403836e-05 5.6736284206548615e-05
0.390953213 -0.09699654579 8.814804350244923e-05 6.26993550878132e-05
0.3962746859 -0.09699654579 0.00010950483849872185 6.854637583762037e-05
0.4015961289 -0.09699654579 0.0001307263891362683 7.458997129709744e-05
0.4069176018 -0.09699654579 0.00015185627917882382 8.073170482076329e-05
0.4122390449 -0.09699654579 0.00017402427656392205 8.765347862878446e-05
0.4175605178 -0.09699654579 0.00019760091141409684 9.562443557060696e-05
0.4228819609 -0.09699654579 0.00022094683994439997 0.00010389614631241324
0.4282034338 -0.09699654579 0.0002442191830711261 0.00011223813030674099
0.4335248768 -0.09699654579 0.0002675107089186777 0.0001205724879670639
0.4388463497 -0.09699654579 0.0002916946599800959 0.00012952791145363907
0.4441677928 -0.09699654579 0.00031745341775033426 0.00014060314482983638
0.4494892657 -0.09699654579 0.0003431305547350678 0.0001516547224225315
0.4548107088 -0.09699654579 0.00036881221700937905 0.00016269489119610683
0.4601321816 -0.09699654579 0.0003944098468833137 0.00017383350185698595
0.4654536247 -0.09699654579 0.0004205742879427044 0.00018649685234402825
0.4707750976 -0.09699654579 0.00044820694819623907 0.00020096567949692907
0.4760965407 -0.09699654579 0.0004761105805657581 0.00021523600218792754
0.4814180136 -0.09699654579 0.000503752248028831 0.00022969851532880501
0.4867394567 -0.09699654579 0.000531102931232193 0.0002443201358669606
0.4920609295 -0.09699654579 0.0005601516236388508 0.0002616239406069228
0.4973823726 -0.09699654579 0.0005896608088983176 0.00027963727228938614
0.5027038455 -0.09699654579 0.0006188163108567531 0.0002979005697383587
0.5080252886 -0.09699654579 0.0006481219591588248 0.00031602736023218726
0.5133467317 -0.09699654579 0.0006783097578939674 0.0003358673538622612
0.5186682343 -0.09699654579 0.0007093985642263763 0.00035783052323924865
0.5239896774 -0.09699654579 0.0007399189424307068 0.0003799990934522439
0.5293111205 -0.09699654579 0.0007707124029975196 0.00040209232681590214
0.5346325636 -0.09699654579 0.0008024674481306382 0.0004257278073785699
0.5399540663 -0.09699654579 0.0008345653565474298 0.00045181129157932675
0.5452755094 -0.09699654579 0.0008664043667328156 0.00047793475745497364
0.5505969524 -0.09699654579 0.0008985174588335425 0.00050402209921355
0.5559183955 -0.09699654579 0.0009317537261925156 0.0005329216278330158
0.5612398982 -0.09699654579 0.0009646100034294219 0.0005629963204933891
0.5665613413 -0.09699654579 0.000997495465478337 0.0005930830957689972
0.5718827844 -0.09699654579 0.0010314750727750599 0.0006245063813782708
0.5772042274 -0.09699654579 0.0010652685924123974 0.0006585102454887575
0.5825257301 -0.09699654579 0.0010990750566105463 0.0006925175884314025
0.5878471732 -0.09699654579 0.0011338657667454624 0.0007277912625345175
0.5931686163 -0.09699654579 0.0011685070074616479 0.000765554882924242
0.5984900594 -0.09699654579 0.001203612512483834 0.0008033790285352959
0.6038115621 -0.09699654579 0.001238971813153434 0.0008435227724197582
0.6091330051 -0.09699654579 0.0012748680334824442 0.00088505558393368
0.6144544482 -0.09699654579 0.0013105512913618106 0.0009273843060322215
0.6197758913 -0.09699654579 0.0013469812656017675 0.000972256792494007
0.625097394 -0.09699654579 0.0013833022863146982 0.001017735609650916
0.6304188371 -0.09699654579 0.001420322050947855 0.0010653588588723048
0.6357402802 -0.09699654579 0.00145787556920328 0.001113570024046158
0.6410617828 -0.09699654579 0.0014949180870063737 0.0011634666647145978
0.6463832259 -0.09699654579 0.0015329362120737038 0.001214597745828785
0.651704669 -0.09699654579 0.0015711967666985922 0.0012668753003362652
0.6570261121 -0.09699654579 0.0016100947618095237 0.0013209831615804046
0.6623476148 -0.09699654579 0.0016495503932058078 0.0013761907784582872
0.6676690578 -0.09699654579 0.0016904618400368008 0.0014323545016383717
0.6729905009 -0.09699654579 0.0017322866883134824 0.0014902636511617195
0.678311944 -0.09699654579 0.0017757411102607083 0.0015492553360398303
0.6836334467 -0.09699654579 0.001820496854381697 0.0016097256934427644
0.6889548898 -0.09699654579 0.0018675044283976354 0.001672813821877991
0.6942763329 -0.09699654579 0.0019173339423942594 0.0017380104167818299
0.6995977759 -0.09699654579 0.0019702262789083043 0.001805064411920704
0.7049192786 -0.09699654579 0.002025477148380285 0.001875462605323716
0.7102407217 -0.09699654579 0.002084351460752939 0.0019496654647282849
0.7155621648 -0.09699654579 0.0021477562519458845 0.0020289224717635747
0.7208836079 -0.09699654579 0.0022158499338090546 0.0021121320302567143
0.7262051105 -0.09699654579 0.002287865915893719 0.0022016950399757758
0.7315265536 -0.09699654579 0.002361949705906857 0.0022976028913838735
0.7368479967 -0.09699654579 0.0024427590298791682 0.002401656357722861
0.7421694398 -0.09699654579 0.002526809188896528 0.0025166041873242815
0.7474909425 -0.09699654579 0.0026150322449238626 0.002640458284799209
0.7528123856 -0.09699654579 0.002705042723421849 0.0027778804661779243
0.7581338286 -0.09699654579 0.002796968098224586 0.002928941343336084
-0.3008363545 -0.09367749095 -0.0008561068395527369 0.0005598276500531695
-0.2955148816 -0.09367749095 -0.0008627134350658095 0.0005578979899368118
-0.2901934385 -0.09367749095 -0.0008694973497515912 0.0005554786627569568
-0.2848719656 -0.09367749095 -0.0008742219650899374 0.0005512446455387503
-0.2795505226 -0.09367749095 -0.0008818441839653565 0.0005460848008293303
-0.2742290497 -0.09367749095 -0.0008894383218482898 0.0005390922344196093
-0.2689076066 -0.09367749095 -0.0008974615352372237 0.0005321991916760216
-0.2635861337 -0.09367749095 -0.0009061959397255771 0.0005241836255035917
-0.2582646906 -0.09367749095 -0.0009121034578001055 0.0005190204033795608
-0.2529432178 -0.09367749095 -0.0009196099681121128 0.0005126624282131529
-0.2476217598 -0.09367749095 -0.0009273874224364631 0.000507017614517373