VARIABLES = X,Y,phix,phiy
ZONE I=200,J=200,F=POINT 
-0.3008363545 -0.1003156006 -0.005196117511812339 0.004719048929196297
-0.2955148816 -0.1003156006 -0.00534102977168707 0.004738416955788455
-0.2901934385 -0.1003156006 -0.005479337344717381 0.004740659319659637
-0.2848719656 -0.1003156006 -0.005622851461260915 0.004741262255791671
-0.2795505226 -0.1003156006 -0.005776292079632583 0.004731829019883928
-0.2742290497 -0.1003156006 -0.005937354071212971 0.0047089164948877285
-0.2689076066 -0.1003156006 -0.006107391549928407 0.0046828297176204825
-0.2635861337 -0.1003156006 -0.006258338216383873 0.004641450558256721
-0.2582646906 -0.1003156006 -0.006411705564176356 0.0045821566426215475
-0.2529432178 -0.1003156006 -0.006568519069892591 0.00451411166576068
-0.2476217598 -0.1003156006 -0.006731648302368185 0.004438464827765362
-0.2423003018 -0.1003156006 -0.006875776251406479 0.004348081995025168
-0.2369788438 -0.1003156006 -0.0070085340091307355 0.004243506168102281
-0.2316573858 -0.1003156006 -0.007145191283962515 0.004129325041611909
-0.2263359278 -0.1003156006 -0.007275562281223893 0.004006809689946473
-0.2210144699 -0.1003156006 -0.007376814873289522 0.0038798238584572603
-0.2156930119 -0.1003156006 -0.007478388750997358 0.0037471069584889827
-0.2103715539 -0.1003156006 -0.007577047121631065 0.0036058133056626838
-0.2050500959 -0.1003156006 -0.007647312037021075 0.0034715190070624797
-0.1997286379 -0.1003156006 -0.007715923485289629 0.0033321569445711754
-0.19440718 -0.1003156006 -0.0077810808886992445 0.0031852133653555714
-0.189085722 -0.1003156006 -0.007824331227179456 0.003050397811633147
-0.183764264 -0.1003156006 -0.007859989969774687 0.002911133954268922
-0.178442806 -0.1003156006 -0.007896318524208128 0.0027708725900185823
-0.173121348 -0.1003156006 -0.007914139424246425 0.0026393823692137048
-0.16779989 -0.1003156006 -0.007929553331661407 0.0025118597877965337
-0.1624784321 -0.1003156006 -0.007940882226183056 0.0023810012500276273
-0.1571569741 -0.1003156006 -0.007944273690977603 0.002261433118910955
-0.1518355161 -0.1003156006 -0.007940255032902965 0.002146060453424282
-0.1465140581 -0.1003156006 -0.007935236546561633 0.0020302626819399612
-0.1411926001 -0.1003156006 -0.007927659297903563 0.0019186782308072603
-0.1358711421 -0.1003156006 -0.007913326036996184 0.0018179391498715075
-0.1305496842 -0.1003156006 -0.00789899600759114 0.0017171989166822564
-0.1252282262 -0.1003156006 -0.007882334687427626 0.0016153382708689978
-0.1199067682 -0.1003156006 -0.007861732685502443 0.0015253187274888514
-0.1145853102 -0.1003156006 -0.007839654293758228 0.0014381304252644729
-0.1092638522 -0.1003156006 -0.007816124846614127 0.0013505262193634915
-0.1039423943 -0.1003156006 -0.0077932762490866255 0.0012638921243879808
-0.09862093627 -0.1003156006 -0.007767679405420267 0.0011894635256245424
-0.09329947084 -0.1003156006 -0.007740765698056718 0.0011149269278571293
-0.08797801286 -0.1003156006 -0.007713828861682933 0.0010403896339553924
-0.08265655488 -0.1003156006 -0.0076870152580964714 0.0009663616516666083
-0.0773350969 -0.1003156006 -0.00765921969085593 0.0009028500895968738
-0.07201363891 -0.1003156006 -0.007631523274436677 0.0008394339128488296
-0.06669218093 -0.1003156006 -0.00760381926069171 0.0007760177370290078
-0.06137072667 -0.1003156006 -0.007575090953942591 0.0007125788432183328
-0.05604926869 -0.1003156006 -0.0075469081357015105 0.000657139332968536
-0.05072781071 -0.1003156006 -0.007518728581034083 0.0006034776843051725
-0.045406349 -0.1003156006 -0.007490933085587273 0.0005498172433260443
-0.04008489102 -0.1003156006 -0.007462366611008324 0.0004962609805630556
-0.03476343304 -0.1003156006 -0.007434450482480952 0.00044533628440629106
-0.02944197692 -0.1003156006 -0.007407431107960783 0.00040023835957828037
-0.02412051894 -0.1003156006 -0.00738020883993535 0.0003551769417322544
-0.01879905909 -0.1003156006 -0.007352693391830753 0.0003101554396820606
-0.01347760204 -0.1003156006 -0.007325493722127136 0.00026510177662579065
-0.00815614406 -0.1003156006 -0.007299359852683006 0.00022399829056775857
-0.00283468538 -0.1003156006 -0.00727382307938684 0.0001860245752946313
0.002486772602 -0.1003156006 -0.007247741088599066 0.00014821929849909388
0.007808230817 -0.1003156006 -0.007221655521458095 0.00011040703769934323
0.0131296888 -0.1003156006 -0.007196028380928469 7.246333480718378e-05
0.01845114678 -0.1003156006 -0.007172064228784031 3.8067554150871505e-05
0.02377260476 -0.1003156006 -0.007149083180252241 6.460759641666082e-06
0.02909406275 -0.1003156006 -0.007125776896129738 -2.503176376911099e-05
0.03441552073 -0.1003156006 -0.007102456897215037 -5.652427411239386e-05
0.03973697871 -0.1003156006 -0.0070794387510934274 -8.81182684267276e-05
0.04505843669 -0.1003156006 -0.007057441945657144 -0.00011787801744920908
0.05037989467 -0.1003156006 -0.007036864387338163 -0.00014406605779689174
0.05570135266 -0.1003156006 -0.007015994914207465 -0.00017008286766283213
0.06102281436 -0.1003156006 -0.006995060942548376 -0.00019610024521461171
0.06634426862 -0.1003156006 -0.006974388234347827 -0.00022221268922879812
0.0716657266 -0.1003156006 -0.006953860989122397 -0.0002484244927673347
0.07698718458 -0.1003156006 -0.006935790845827966 -0.0002704659836821138
0.08230864257 -0.1003156006 -0.006917819269607523 -0.00029214701918794825
0.08763010055 -0.1003156006 -0.006899660416910719 -0.0003136773706064027
0.09295155853 -0.1003156006 -0.0068816881376549816 -0.00033531908921867205
0.09827301651 -0.1003156006 -0.006863814744110955 -0.0003570558013219041
0.1035944745 -0.1003156006 -0.0068474129156884155 -0.00037744602940685453
0.1089159325 -0.1003156006 -0.006833857914068913 -0.0003948996586773817
0.1142373979 -0.1003156006 -0.006820301706980671 -0.00041235347389995033
0.1195588559 -0.1003156006 -0.006807088133641 -0.00043000297575574093
0.1248803139 -0.1003156006 -0.006793774930317343 -0.0004475605624209663
0.1302017719 -0.1003156006 -0.006780346579833214 -0.00046510265506069314
0.1355232298 -0.1003156006 -0.006769551871370402 -0.00048083178770852393
0.1408446878 -0.1003156006 -0.006760729899391501 -0.0004952493802747496
0.1461661458 -0.1003156006 -0.0067520826108728275 -0.000510032753660614
0.1514876038 -0.1003156006 -0.006743437523547468 -0.0005248160887509709
0.1568090618 -0.1003156006 -0.006734803737515579 -0.0005395993667350514
0.1621305197 -0.1003156006 -0.006726141679678078 -0.0005544061534114688
0.1674519777 -0.1003156006 -0.006721573488700691 -0.0005683510465894999
0.1727734357 -0.1003156006 -0.006718566347568918 -0.0005818092884266844
0.1780948937 -0.1003156006 -0.0067155695652104065 -0.000595267478816464
0.1834163517 -0.1003156006 -0.006712568188930227 -0.0006087257600119144
0.1887378097 -0.1003156006 -0.006709627415474631 -0.0006223179814343602
0.1940592676 -0.1003156006 -0.006706700436316001 -0.000636255284768396
0.1993807256 -0.1003156006 -0.0067088647681846055 -0.0006506037362930151
0.2047021836 -0.1003156006 -0.00671261677950185 -0.0006650294234591125
0.2100236416 -0.1003156006 -0.006716364223558061 -0.0006794556082064409
0.2153450996 -0.1003156006 -0.006720004158303411 -0.0006943677305099582
0.2206665576 -0.1003156006 -0.006723624876685481 -0.0007091468967031228
0.2259880155 -0.1003156006 -0.0067272456124981865 -0.0007239257069625494
0.2313094735 -0.1003156006 -0.0067358008350788265 -0.0007421458297263173
0.2366309315 -0.1003156006 -0.006745359388288302 -0.0007616571895445501
0.2419523895 -0.1003156006 -0.0067546815548652364 -0.0007813395468061635
0.2472738475 -0.1003156006 -0.006764002769605598 -0.0008010263602286941
0.2525953054 -0.1003156006 -0.006773228324884513 -0.0008206649859198574
0.2579167783 -0.1003156006 -0.006782190947240752 -0.0008404952305185218
0.2632382214 -0.1003156006 -0.0067927695654074974 -0.000866595125105595
0.2685596943 -0.1003156006 -0.006803976497823475 -0.0008941974574884124
0.2738811374 -0.1003156006 -0.006815442598455573 -0.0009218420605828915
0.2792026103 -0.1003156006 -0.0068267052918645965 -0.0009494493231972892
0.2845240533 -0.1003156006 -0.0068372165272447 -0.0009770274811703504
0.2898455262 -0.1003156006 -0.006847728724955312 -0.0010046054962302448
0.2951669693 -0.1003156006 -0.006855294625562823 -0.0010387698928697394
0.3004884422 -0.1003156006 -0.006862337563042613 -0.0010738623922058059
0.3058098853 -0.1003156006 -0.006868734363274996 -0.0011083518344934078
0.3111313581 -0.1003156006 -0.006875116747931197 -0.0011428409970361188
0.3164528012 -0.1003156006 -0.006881503271843942 -0.001177330077770793
0.3217742741 -0.1003156006 -0.006887818963448258 -0.0012118922675535583
0.3270957172 -0.1003156006 -0.006886874105818793 -0.001248659578716635
0.3324171901 -0.1003156006 -0.006885908368631944 -0.0012854314299042802
0.3377386332 -0.1003156006 -0.006884941486988304 -0.0013222024330784435
0.343060106 -0.1003156006 -0.0068839803055555735 -0.0013589749176681298
0.3483815491 -0.1003156006 -0.00688303036632866 -0.0013949794249234829
0.353703022 -0.1003156006 -0.006880220782662865 -0.0014302548880661787
0.3590244651 -0.1003156006 -0.006873288609686332 -0.0014639162487121895
0.364345938 -0.1003156006 -0.006866356150533716 -0.0014975768327981794
0.369667381 -0.1003156006 -0.006859880202276893 -0.0015307629249837024
0.3749888539 -0.1003156006 -0.006853292099027849 -0.001564067428761154
0.380310297 -0.1003156006 -0.006846633125881917 -0.0015974334996540433
0.3856317699 -0.1003156006 -0.006838147855598065 -0.0016272978686609897
0.390953213 -0.1003156006 -0.0068296532571291355 -0.0016559108216287646
0.3962746859 -0.1003156006 -0.006821204277841787 -0.001684526280058283
0.4015961289 -0.1003156006 -0.006812769678139434 -0.001713186417686782
0.4069176018 -0.1003156006 -0.006804320371566857 -0.0017418618030972798
0.4122390449 -0.1003156006 -0.0067967529548256635 -0.0017688357770537625
0.4175605178 -0.1003156006 -0.006789506809410908 -0.0017932772647695652
0.4228819609 -0.1003156006 -0.006782102681044921 -0.0018176499210614682
0.4282034338 -0.1003156006 -0.006774702344026427 -0.001842015712347129
0.4335248768 -0.1003156006 -0.006767785806699548 -0.0018666537908423955
0.4388463497 -0.1003156006 -0.006761575798324247 -0.0018904834710117707
0.4441677928 -0.1003156006 -0.006757257475696653 -0.0019120605703281221
0.4494892657 -0.1003156006 -0.006753016413258052 -0.0019337007474059004
0.4548107088 -0.1003156006 -0.006748971331175723 -0.00195567425981078
0.4601321816 -0.1003156006 -0.006744786614634997 -0.001977468092974202
0.4654536247 -0.1003156006 -0.006742003046354849 -0.0019986151221351245
0.4707750976 -0.1003156006 -0.006741460414591356 -0.0020189088603670097
0.4760965407 -0.1003156006 -0.0067409643187984905 -0.0020396217378843987
0.4814180136 -0.1003156006 -0.006740468387998158 -0.002060334924965093
0.4867394567 -0.1003156006 -0.006739991370312584 -0.002081000742292712
0.4920609295 -0.1003156006 -0.006742418207245599 -0.00210139200653825
0.4973823726 -0.1003156006 -0.0067456033313076065 -0.002121963371189387
0.5027038455 -0.1003156006 -0.006748769842399964 -0.0021425138324335756
0.5080252886 -0.1003156006 -0.006751926409927782 -0.0021630642948725952
0.5133467317 -0.1003156006 -0.0067565699864784315 -0.002184509211074175
0.5186682343 -0.1003156006 -0.006763357728128745 -0.0022058419932390397
0.5239896774 -0.1003156006 -0.0067701284604711354 -0.002227168869943268
0.5293111205 -0.1003156006 -0.006776843525480606 -0.0022486545653646133
0.5346325636 -0.1003156006 -0.00678475516514608 -0.0022712804782410987
0.5399540663 -0.1003156006 -0.0067948152391914245 -0.0022942665131594486
0.5452755094 -0.1003156006 -0.006804995085617778 -0.002317066726158374
0.5505969524 -0.1003156006 -0.006814879591636066 -0.002340276637312298
0.5559183955 -0.1003156006 -0.006826797157292079 -0.002365172474822124
0.5612398982 -0.1003156006 -0.006840005014546933 -0.0023899311447996563
0.5665613413 -0.1003156006 -0.006853155579938956 -0.002414777804068206
0.5718827844 -0.1003156006 -0.0068667454054557615 -0.0024411244938206235
0.5772042274 -0.1003156006 -0.00688255745237475 -0.0024682702831751334
0.5825257301 -0.1003156006 -0.006898382533164913 -0.0024953752526576996
0.5878471732 -0.1003156006 -0.0069148808937040404 -0.002523909258545707
0.5931686163 -0.1003156006 -0.006932965478086266 -0.0025535476627952997
0.5984900594 -0.1003156006 -0.006951053377876967 -0.0025830019388940967
0.6038115621 -0.1003156006 -0.00697101785903818 -0.002614382642167788
0.6091330051 -0.1003156006 -0.006991082620626827 -0.0026463906577369406
0.6144544482 -0.1003156006 -0.007012657931521186 -0.002679311416816031
0.6197758913 -0.1003156006 -0.007034928294357254 -0.0027137503731578497
0.625097394 -0.1003156006 -0.007057797491609977 -0.0027490321615959907
0.6304188371 -0.1003156006 -0.007082252867265199 -0.0027858811613823598
0.6357402802 -0.1003156006 -0.007106779874312803 -0.002823897616191376
0.6410617828 -0.1003156006 -0.0071325564065023 -0.0028628265662122487
0.6463832259 -0.1003156006 -0.00715924203000409 -0.002902919105155104
0.651704669 -0.1003156006 -0.007186557381571265 -0.002943748020078359
0.6570261121 -0.1003156006 -0.007214785004443984 -0.002986705582639663
0.6623476148 -0.1003156006 -0.0072439952268531236 -0.0030306841879567782
0.6676690578 -0.1003156006 -0.007274283720674679 -0.0030757439090420414
0.6729905009 -0.1003156006 -0.00730597934394318 -0.00312295681813077
0.678311944 -0.1003156006 -0.007338410950674499 -0.0031716046095557403
0.6836334467 -0.1003156006 -0.007372204274961921 -0.0032215273770138295
0.6889548898 -0.1003156006 -0.007407540677990861 -0.003273181283741829
0.6942763329 -0.1003156006 -0.0074445603718570575 -0.003326866926929256
0.6995977759 -0.1003156006 -0.007483028050463618 -0.0033823784610306595
0.7049192786 -0.1003156006 -0.007523066216319966 -0.0034399763489544465
0.7102407217 -0.1003156006 -0.007564956902543455 -0.00349993406698844
0.7155621648 -0.1003156006 -0.0076092436547608175 -0.0035629058692381492
0.7208836079 -0.1003156006 -0.007655289888442706 -0.0036289332951353714
0.7262051105 -0.1003156006 -0.007703270797929702 -0.00369799096152099
0.7315265536 -0.1003156006 -0.007753923940334955 -0.003770859264175369
0.7368479967 -0.1003156006 -0.007807561607159942 -0.0038494009434670634
0.7421694398 -0.1003156006 -0.007864062818469459 -0.003932184012259621
0.7474909425 -0.1003156006 -0.0079198425761479 -0.004020207645213575
0.7528123856 -0.1003156006 -0.007979537395305495 -0.004114916408760208
0.7581338286 -0.1003156006 -0.008041041677824077 -0.00421669011271843
-0.3008363545 -0.09699654579 -0.005178062118448904 0.004800982194429552
-0.2955148816 -0.09699654579 -0.005328117174312121 0.0048264238712582164
-0.2901934385 -0.09699654579 -0.0054820429537759605 0.004839619051077176
-0.2848719656 -0.09699654579 -0.005629401493596962 0.004836622624858589
-0.2795505226 -0.09699654579 -0.00578499578327602 0.004830043187115938
-0.2742290497 -0.09699654579 -0.005948484818681602 0.004812538363968268
-0.2689076066 -0.09699654579 -0.0061234523825601985 0.0047804224284473725
-0.2635861337 -0.09699654579 -0.006294660893191 0.0047410780892842685
-0.2582646906 -0.09699654579 -0.006450003301030095 0.00468617680284724
-0.2529432178 -0.09699654579 -0.006611415049615565 0.00461506961215818
-0.2476217598 -0.09699654579 -0.00677940753778813 0.004530469461317926
-0.2423003018 -0.09699654579 -0.006939141432215282 0.004437378651687961
-0.2369788438 -0.09699654579 -0.007076119564282188 0.004330957163003166
-0.2316573858 -0.09699654579 -0.007212294606127756 0.004210015015788406
-0.2263359278 -0.09699654579 -0.007352527154319652 0.004078978719789729
-0.2210144699 -0.09699654579 -0.007459231127441473 0.003949100922389237
-0.2156930119 -0.09699654579 -0.0075586628758559276 0.003808362341011143
-0.2103715539 -0.09699654579 -0.007659559872134085 0.0036605874234419055
-0.2050500959 -0.09699654579 -0.00773507668114289 0.0035175398461492163
-0.1997286379 -0.09699654579 -0.007800114194022089 0.003370245262237392
-0.19440718 -0.09699654579 -0.00786512507260272 0.0032202543123316255
-0.189085722 -0.09699654579 -0.007907823904363412 0.00307448328179108
-0.183764264 -0.09699654579 -0.007943889474535462 0.002931747420304079
-0.178442806 -0.09699654579 -0.007976003932777946 0.0027856103021235193
-0.173121348 -0.09699654579 -0.007994877291932172 0.002651356506505863
-0.16779989 -0.09699654579 -0.00800483018988582 0.002519211321606935
-0.1624784321 -0.09699654579 -0.008014988190408304 0.0023856612102745238
-0.1571569741 -0.09699654579 -0.008014739099856432 0.002260435178402532
-0.1518355161 -0.09699654579 -0.008008902375985297 0.0021432909557117606
-0.1465140581 -0.09699654579 -0.008001488838078715 0.0020246663375838945
-0.1411926001 -0.09699654579 -0.007991847763608556 0.0019109313115140238
-0.1358711421 -0.09699654579 -0.007974730962737053 0.0018088524457415005
-0.1305496842 -0.09699654579 -0.007956208795161535 0.001706352492849944
-0.1252282262 -0.09699654579 -0.007938089601404285 0.0016034740991506037
-0.1199067682 -0.09699654579 -0.007914593614531538 0.0015114724694808763
-0.1145853102 -0.09699654579 -0.007890730796592107 0.0014236301670690512
-0.1092638522 -0.09699654579 -0.00786617181504469 0.0013355407353462757
-0.1039423943 -0.09699654579 -0.007840233583781017 0.0012475692703345824
-0.09862093627 -0.09699654579 -0.007812651747173438 0.0011727909293899439
-0.09329947084 -0.09699654579 -0.007784270680763628 0.0010978706936033227
-0.08797801286 -0.09699654579 -0.007755087719687735 0.0010228480082373286
-0.08265655488 -0.09699654579 -0.007726873820204648 0.0009484567575002435
-0.0773350969 -0.09699654579 -0.007697899871782831 0.0008849988156875422
-0.07201363891 -0.09699654579 -0.007668187969980529 0.0008216098899359289
-0.06669218093 -0.09699654579 -0.007638512304992616 0.0007581999859631194
-0.06137072667 -0.09699654579 -0.007608671001645986 0.0006946794483772233
-0.05604926869 -0.09699654579 -0.0075789278335160444 0.0006391380717013461
-0.05072781071 -0.09699654579 -0.007549750650835391 0.0005855802266494443
-0.045406349 -0.09699654579 -0.007520560903913792 0.0005320227715930879
-0.04008489102 -0.09699654579 -0.00749082744196506 0.00047851667801895
-0.03476343304 -0.09699654579 -0.007461386819710828 0.0004277073838844294
-0.02944197692 -0.09699654579 -0.0074330989976545145 0.00038282951830242756
-0.02412051894 -0.09699654579 -0.007404951000944833 0.0003378943143343583
-0.01879905909 -0.09699654579 -0.007376670312617602 0.00029301532306365773
-0.01347760204 -0.09699654579 -0.007348161257429672 0.0002481924383412613
-0.00815614406 -0.09699654579 -0.007320866884496095 0.0002073605102424455
-0.00283468538 -0.09699654579 -0.0072942769817545446 0.00016967112799742506
0.002486772602 -0.09699654579 -0.007267458459331879 0.00013205912749499676
0.007808230817 -0.09699654579 -0.0072406052264386775 9.444764862885031e-05
0.0131296888 -0.09699654579 -0.007213916407190341 5.6793816679470276e-05
0.01845114678 -0.09699654579 -0.007189058058729625 2.275930265131272e-05
0.02377260476 -0.09699654579 -0.00716535284915445 -8.572945245678376e-06
0.02909406275 -0.09699654579 -0.007141380502802915 -3.978163042384242e-05
0.03441552073 -0.09699654579 -0.0071173860050495865 -7.098216983695844e-05
0.03973697871 -0.09699654579 -0.00709367126674365 -0.00010230596163661977
0.04505843669 -0.09699654579 -0.00707090928020508 -0.0001316483596344358
0.05037989467 -0.09699654579 -0.007049612895501533 -0.00015747123818040092
0.05570135266 -0.09699654579 -0.007028238645666913 -0.0001832328927109042
0.06102281436 -0.09699654579 -0.007006662141932401 -0.00020890397457749745
0.06634426862 -0.09699654579 -0.006985419995139659 -0.0002347497897793855
0.0716657266 -0.09699654579 -0.006964161938080773 -0.0002605955811754185
0.07698718458 -0.09699654579 -0.006945527611179243 -0.0002821882371919262
0.08230864257 -0.09699654579 -0.006926945912164684 -0.00030350312344302723
0.08763010055 -0.09699654579 -0.006908492800529862 -0.0003248455435984367
0.09295155853 -0.09699654579 -0.006890068499235075 -0.00034618438275805933
0.09827301651 -0.09699654579 -0.006871611357158412 -0.0003675508376691066
0.1035944745 -0.09699654579 -0.006854745642232894 -0.00038744015633579654
0.1089159325 -0.09699654579 -0.006840715292764396 -0.0004044289611708203
0.1142373979 -0.09699654579 -0.00682693388261929 -0.0004215666364491625
0.1195588559 -0.09699654579 -0.006813290274156584 -0.00043886758716955317
0.1248803139 -0.09699654579 -0.0067996389734252954 -0.00045616847029375453
0.1302017719 -0.09699654579 -0.0067858863748081685 -0.0004733131334663101
0.1355232298 -0.09699654579 -0.006774861249726094 -0.0004883519860618836
0.1408446878 -0.09699654579 -0.006765996415878393 -0.0005023878340842641
0.1461661458 -0.09699654579 -0.006757091250845223 -0.0005164532905490609
0.1514876038 -0.09699654579 -0.006748002610379725 -0.0005304865788783481
0.1568090618 -0.09699654579 -0.006738934360914328 -0.0005445198266147644
0.1621305197 -0.09699654579 -0.006730034612801438 -0.0005587835868532617
0.1674519777 -0.09699654579 -0.006725570141150008 -0.0005720593233139073
0.1727734357 -0.09699654579 -0.0067226609144823415 -0.0005847776060975894
0.1780948937 -0.09699654579 -0.006719661883188054 -0.0005972388478595761
0.1834163517 -0.09699654579 -0.006716728912003009 -0.0006097796203092246
0.1887378097 -0.09699654579 -0.006713832363294209 -0.0006229031450210188
0.1940592676 -0.09699654579 -0.006710960667955408 -0.0006360263663555369
0.1993807256 -0.09699654579 -0.006713717462261973 -0.0006495357769265625
0.2047021836 -0.09699654579 -0.006717962249681301 -0.0006630962986859064
0.2100236416 -0.09699654579 -0.006722079880119377 -0.0006771935338921575
0.2153450996 -0.09699654579 -0.006726133373967282 -0.0006913845197434083
0.2206665576 -0.09699654579 -0.00673020151174296 -0.0007055756668611567
0.2259880155 -0.09699654579 -0.006734311397751526 -0.0007197182036135762
0.2313094735 -0.09699654579 -0.006743560795019473 -0.0007377274023434281
0.2366309315 -0.09699654579 -0.0067537699803647995 -0.0007567158713015714
0.2419523895 -0.09699654579 -0.006764004201606003 -0.0007757033700761418
0.2472738475 -0.09699654579 -0.006774218208229247 -0.0007946918398304348
0.2525953054 -0.09699654579 -0.006784137976715492 -0.0008139207887326649
0.2579167783 -0.09699654579 -0.006793713385185645 -0.0008334050943274341
0.2632382214 -0.09699654579 -0.006805752575227072 -0.0008597927276932075
0.2685596943 -0.09699654579 -0.006818244436653593 -0.0008875599335611132
0.2738811374 -0.09699654579 -0.006830383791594209 -0.0009152843459510574
0.2792026103 -0.09699654579 -0.0068419273572347976 -0.0009429994089053312
0.2845240533 -0.09699654579 -0.006853631811073646 -0.0009706976764930162
0.2898455262 -0.09699654579 -0.0068655431488693726 -0.0009984312603165916
0.2951669693 -0.09699654579 -0.006873807444489245 -0.0010335464368078147
0.3004884422 -0.09699654579 -0.006881191697205381 -0.001069052785204521
0.3058098853 -0.09699654579 -0.006888534150387865 -0.0011045057017662302
0.3111313581 -0.09699654579 -0.006895888345520776 -0.0011399594572196207
0.3164528012 -0.09699654579 -0.0069030465354573125 -0.0011751642586766955
0.3217742741 -0.09699654579 -0.00690928767269956 -0.0012101180346646783
0.3270957172 -0.09699654579 -0.006908271141413357 -0.001247772035679318
0.3324171901 -0.09699654579 -0.006907234249468338 -0.0012854260354991283
0.3377386332 -0.09699654579 -0.0069062439699955685 -0.0013227724005701628
0.343060106 -0.09699654579 -0.006905254225229041 -0.001359836676423851
0.3483815491 -0.09699654579 -0.006904230936161624 -0.001396953345009666
0.353703022 -0.09699654579 -0.006900915107979735 -0.001433167661843646
0.3590244651 -0.09699654579 -0.006893421288464621 -0.0014673438646705137
0.364345938 -0.09699654579 -0.006886224854739318 -0.0015011915280754504
0.369667381 -0.09699654579 -0.006879046495631983 -0.001535060562693396
0.3749888539 -0.09699654579 -0.006871891252935663 -0.001568954731912822
0.380310297 -0.09699654579 -0.006865011611362407 -0.0016025922377009704
0.3856317699 -0.09699654579 -0.006856429518107267 -0.0016322954733192108
0.390953213 -0.09699654579 -0.006847284805051414 -0.001660996705438018
0.3962746859 -0.09699654579 -0.006837915471835034 -0.0016897348472752604
0.4015961289 -0.09699654579 -0.006828916234185148 -0.0017184134767576295
0.4069176018 -0.09699654579 -0.006820189428252703 -0.00174706652879677
0.4122390449 -0.09699654579 -0.006811813102146318 -0.0017737470843981705
0.4175605178 -0.09699654579 -0.0068038932146988595 -0.0017977885446550362
0.4228819609 -0.09699654579 -0.006796369524097426 -0.0018220206047722966
0.4282034338 -0.09699654579 -0.0067889776384502465 -0.001846340691033822
0.4335248768 -0.09699654579 -0.006781574879904727 -0.0018706332952537843
0.4388463497 -0.09699654579 -0.006774803669126079 -0.0018938134006418526
0.4441677928 -0.09699654579 -0.0067703384331735 -0.0019150234184024922
0.4494892657 -0.09699654579 -0.006765864481116114 -0.0019363204414580071
0.4548107088 -0.09699654579 -0.0067613666562382525 -0.0019576128618803276
0.4601321816 -0.09699654579 -0.006756947824992245 -0.001978972206554077
0.4654536247 -0.09699654579 -0.006754250360052178 -0.0020000786121469093
0.4707750976 -0.09699654579 -0.0067536767056791385 -0.002020061480363734
0.4760965407 -0.09699654579 -0.006753030877917154 -0.0020397736076611913
0.4814180136 -0.09699654579 -0.006752455457878894 -0.00205974690449548
0.4867394567 -0.09699654579 -0.006751897275717635 -0.0020800800422446307
0.4920609295 -0.09699654579 -0.006754437521482886 -0.0021000837372536253
0.4973823726 -0.09699654579 -0.006757767455353411 -0.0021199859708116516
0.5027038455 -0.09699654579 -0.006761101652535963 -0.00214017076203382
0.5080252886 -0.09699654579 -0.006764405170957836 -0.0021602902118510025
0.5133467317 -0.09699654579 -0.006769457308332653 -0.0021806764732354243
0.5186682343 -0.09699654579 -0.006776522190174557 -0.0022014635487098274
0.5239896774 -0.09699654579 -0.006783332761723551 -0.002222812647797781
0.5293111205 -0.09699654579 -0.0067902910051099675 -0.0022438703684262594
0.5346325636 -0.09699654579 -0.0067988796455083385 -0.002265298978923043
0.5399540663 -0.09699654579 -0.0068092526845520834 -0.0022878757281783717
0.5452755094 -0.09699654579 -0.006819462441730948 -0.002310692571501591
0.5505969524 -0.09699654579 -0.006829843518599016 -0.0023332568030806494
0.5559183955 -0.09699654579 -0.006842664486721666 -0.0023569974316107276
0.5612398982 -0.09699654579 -0.006855868087848024 -0.002381736004246292
0.5665613413 -0.09699654579 -0.006869122610597317 -0.0024064433500465055
0.5718827844 -0.09699654579 -0.006883857250387399 -0.002431458695933494
0.5772042274 -0.09699654579 -0.00689983011388536 -0.0024583232962576097
0.5825257301 -0.09699654579 -0.006915814646819305 -0.0024851832406702756
0.5878471732 -0.09699654579 -0.006933133763131563 -0.002512517026715254
0.5931686163 -0.09699654579 -0.006951582488581141 -0.0025417637285974682
0.5984900594 -0.09699654579 -0.0069704369479693384 -0.0025707768516419214
0.6038115621 -0.09699654579 -0.006990547620221679 -0.0026016105456204363
0.6091330051 -0.09699654579 -0.007011905327837526 -0.0026331475009862344
0.6144544482 -0.09699654579 -0.007033298890656408 -0.002665594813639428
0.6197758913 -0.09699654579 -0.007056616734422977 -0.0026997927781434354
0.625097394 -0.09699654579 -0.0070801380667317 -0.0027344975462881144
0.6304188371 -0.09699654579 -0.00710499304184909 -0.0027708265415385077
0.6357402802 -0.09699654579 -0.007130802326724917 -0.0028075367947051873
0.6410617828 -0.09699654579 -0.007156956402791636 -0.0028460093678003813
0.6463832259 -0.09699654579 -0.00718438866110979 -0.0028855690465358305
0.651704669 -0.09699654579 -0.007212695036182765 -0.002926182160694312
0.6570261121 -0.09699654579 -0.007241943921556702 -0.0029687353010169628
0.6623476148 -0.09699654579 -0.007272000999524932 -0.0030122967070606798
0.6676690578 -0.09699654579 -0.007303149435012764 -0.003056719527601284
0.6729905009 -0.09699654579 -0.0073355001414780845 -0.003102940915401446
0.678311944 -0.09699654579 -0.007369218900574261 -0.0031502841455594553
0.6836334467 -0.09699654579 -0.007403765496242518 -0.003199083076575138
0.6889548898 -0.09699654579 -0.007439964160002896 -0.0032500117683645917
0.6942763329 -0.09699654579 -0.007477922269286955 -0.0033027704465614653
0.6995977759 -0.09699654579 -0.00751769252422585 -0.0033569424202355156
0.7049192786 -0.09699654579 -0.007559054512823407 -0.0034133584122451825
0.7102407217 -0.09699654579 -0.007602494875697399 -0.003472196228848509
0.7155621648 -0.09699654579 -0.0076485748922640135 -0.0035342345754430194
0.7208836079 -0.09699654579 -0.0076973005503385 -0.003598603846264324
0.7262051105 -0.09699654579 -0.007748497516523313 -0.00366644262468437
0.7315265536 -0.09699654579 -0.007801217185408057 -0.0037383700550178327
0.7368479967 -0.09699654579 -0.007857646966483948 -0.0038139367172279532
0.7421694398 -0.09699654579 -0.007916392228192598 -0.0038957855728070858
0.7474909425 -0.09699654579 -0.007977913418929266 -0.0039821447779107046
0.7528123856 -0.09699654579 -0.008041298236662322 -0.004076345143261865
0.7581338286 -0.09699654579 -0.008106606255895812 -0.004177323274045555
-0.3008363545 -0.09367749095 -0.005157537803839808 0.004885785323407797
-0.2955148816 -0.09367749095 -0.005311377843783903 0.004916754511201146
-0.2901934385 -0.09367749095 -0.0054786326421336655 0.004933869727216586
-0.2848719656 -0.09367749095 -0.005636022845769331 0.004940664039894915
-0.2795505226 -0.09367749095 -0.005792940306700768 0.004932540564087331
-0.2742290497 -0.09367749095 -0.005962267634165985 0.004914854991908999
-0.2689076066 -0.09367749095 -0.0061371144135781205 0.004888357977771555
-0.2635861337 -0.09367749095 -0.006325124860120026 0.004845817095888747
-0.2582646906 -0.09367749095 -0.0064921456993936475 0.004787138297598482
-0.2529432178 -0.09367749095 -0.006656811546353849 0.004718199909039786
-0.2476217598 -0.09367749095 -0.00682711758145662 0.004634096499356223
-0.2423003018 -0.09367749095 -0.00700487278085029 0.004532463425569024
-0.2369788438 -0.09367749095 -0.007146126619165633 0.004420116705496546