VARIABLES = X,Y,phix,phiy
ZONE I=200,J=200,F=POINT 
-0.3008363545 -0.1003156006 5.4026218655061356e-05 -7.421702077164887e-05
-0.2955148816 -0.1003156006 4.790404072962346e-05 -7.161225498465743e-05
-0.2901934385 -0.1003156006 4.457991034626687e-05 -6.763041201735482e-05
-0.2848719656 -0.1003156006 4.1612293109998465e-05 -6.399911010936739e-05
-0.2795505226 -0.1003156006 3.88123760087236e-05 -6.008041458647781e-05
-0.2742290497 -0.1003156006 3.681313417515375e-05 -5.530094965217975e-05
-0.2689076066 -0.1003156006 3.4832529577874894e-05 -5.064506156710507e-05
-0.2635861337 -0.1003156006 3.059999129976705e-05 -4.807650724724125e-05
-0.2582646906 -0.1003156006 2.6484093634313105e-05 -4.569021460912013e-05
-0.2529432178 -0.1003156006 2.2381237558961463e-05 -4.295975674977818e-05
-0.2476217598 -0.1003156006 1.8434339151619847e-05 -4.086417953940273e-05
-0.2423003018 -0.1003156006 1.0043274455751593e-05 -4.24720603564616e-05
-0.2369788438 -0.1003156006 -5.043988940302562e-07 -4.6719248785978504e-05
-0.2316573858 -0.1003156006 -1.1415310905723397e-05 -5.19619373817547e-05
-0.2263359278 -0.1003156006 -2.2123781493012425e-05 -5.805897575179258e-05
-0.2210144699 -0.1003156006 -2.4801784754308294e-05 -5.922986116792693e-05
-0.2156930119 -0.1003156006 -2.6874645492839413e-05 -6.014560997423537e-05
-0.2103715539 -0.1003156006 -2.8457323199451992e-05 -6.02714733894582e-05
-0.2050500959 -0.1003156006 -2.900694576485713e-05 -5.9605763443092106e-05
-0.1997286379 -0.1003156006 -2.882985120147544e-05 -5.77704297628595e-05
-0.19440718 -0.1003156006 -2.8257629955739944e-05 -5.5368428001741506e-05
-0.189085722 -0.1003156006 -3.5277931460996456e-05 -5.473358925794904e-05
-0.183764264 -0.1003156006 -4.5017162686542724e-05 -5.362798706308543e-05
-0.178442806 -0.1003156006 -5.477325868379784e-05 -5.268196240634475e-05
-0.173121348 -0.1003156006 -6.13768667228941e-05 -5.1901514161339166e-05
-0.16779989 -0.1003156006 -6.596782841041882e-05 -5.0978681231542475e-05
-0.1624784321 -0.1003156006 -7.099950605394268e-05 -5.005920367037196e-05
-0.1571569741 -0.1003156006 -7.502974706770439e-05 -5.1543990434425546e-05
-0.1518355161 -0.1003156006 -7.812084183464699e-05 -5.459336947135022e-05
-0.1465140581 -0.1003156006 -8.125526003061696e-05 -5.789387522764333e-05
-0.1411926001 -0.1003156006 -8.373721754758681e-05 -6.107250877985168e-05
-0.1358711421 -0.1003156006 -8.582270246951124e-05 -6.30313176480844e-05
-0.1305496842 -0.1003156006 -8.789767755608675e-05 -6.498982999823069e-05
-0.1252282262 -0.1003156006 -8.944219754362431e-05 -6.688731550619513e-05
-0.1199067682 -0.1003156006 -9.111590907082054e-05 -6.81542595275977e-05
-0.1145853102 -0.1003156006 -9.284535407833391e-05 -6.901720357355234e-05
-0.1092638522 -0.1003156006 -9.439682208254004e-05 -6.985877491874409e-05
-0.1039423943 -0.1003156006 -9.60440509489408e-05 -7.085391232435585e-05
-0.09862093627 -0.1003156006 -9.804079809259988e-05 -7.113670411272814e-05
-0.09329947084 -0.1003156006 -0.0001000024356838258 -7.140199812808062e-05
-0.08797801286 -0.1003156006 -0.0001019656863262737 -7.166731425818533e-05
-0.08265655488 -0.1003156006 -0.00010383233461389427 -7.199697102383552e-05
-0.0773350969 -0.1003156006 -0.00010623148347330843 -7.180279968754374e-05
-0.07201363891 -0.1003156006 -0.00010868594014159574 -7.164994273456709e-05
-0.06669218093 -0.1003156006 -0.00011113487780397494 -7.149698598243908e-05
-0.06137072667 -0.1003156006 -0.00011350167421608327 -7.127082086528848e-05
-0.05604926869 -0.1003156006 -0.00011616089903774819 -7.098306606221097e-05
-0.05072781071 -0.1003156006 -0.00011894808358561429 -7.057363165591406e-05
-0.045406349 -0.1003156006 -0.00012176441721045555 -7.019807099939234e-05
-0.04008489102 -0.1003156006 -0.00012456735634842753 -6.979351643974194e-05
-0.03476343304 -0.1003156006 -0.00012746177683095792 -6.933594507573646e-05
-0.02944197692 -0.1003156006 -0.00013074580552143128 -6.859380144638041e-05
-0.02412051894 -0.1003156006 -0.00013403042804722152 -6.783710327677119e-05
-0.01879905909 -0.1003156006 -0.00013732127177042708 -6.70527997351425e-05
-0.01347760204 -0.1003156006 -0.00014061828966406396 -6.63015350029374e-05
-0.00815614406 -0.1003156006 -0.00014415338412845187 -6.547870365248696e-05
-0.00283468538 -0.1003156006 -0.0001479781938861386 -6.45290514962518e-05
0.002486772602 -0.1003156006 -0.00015183146183343567 -6.355144651625061e-05
0.007808230817 -0.1003156006 -0.0001556804844129168 -6.257078798605586e-05
0.0131296888 -0.1003156006 -0.00015950587844362887 -6.161651276522165e-05
0.01845114678 -0.1003156006 -0.00016349550850164337 -6.077069876468981e-05
0.02377260476 -0.1003156006 -0.00016768607939201866 -5.995300638808194e-05
0.02909406275 -0.1003156006 -0.00017187501329985218 -5.911403381908909e-05
0.03441552073 -0.1003156006 -0.0001760530635522814 -5.827498518798696e-05
0.03973697871 -0.1003156006 -0.00018024928150360122 -5.7454086313842164e-05
0.04505843669 -0.1003156006 -0.00018441400593763186 -5.674403469083237e-05
0.05037989467 -0.1003156006 -0.00018874550454346642 -5.616344933091073e-05
0.05570135266 -0.1003156006 -0.00019307775860266573 -5.558341768991137e-05
0.06102281436 -0.1003156006 -0.00019740375899073812 -5.498388487228479e-05
0.06634426862 -0.1003156006 -0.00020173355620466723 -5.440805927337902e-05
0.0716657266 -0.1003156006 -0.00020606977536715652 -5.3832496756893496e-05
0.07698718458 -0.1003156006 -0.00021078465151659834 -5.3347846588713035e-05
0.08230864257 -0.1003156006 -0.000215579451284024 -5.2855593397328624e-05
0.08763010055 -0.1003156006 -0.00022038148028127898 -5.2359036908251606e-05
0.09295155853 -0.1003156006 -0.0002251771480236894 -5.187833273374739e-05
0.09827301651 -0.1003156006 -0.0002299657063590949 -5.139877144956708e-05
0.1035944745 -0.1003156006 -0.0002348874308135479 -5.0975940217371663e-05
0.1089159325 -0.1003156006 -0.00024021525431947884 -5.0642550057608796e-05
0.1142373979 -0.1003156006 -0.0002455471448858809 -5.030923520654762e-05
0.1195588559 -0.1003156006 -0.0002508735665114887 -5.0006711601907284e-05
0.1248803139 -0.1003156006 -0.00025620342776702784 -4.970311545494934e-05
0.1302017719 -0.1003156006 -0.00026153262300063424 -4.937761785098733e-05
0.1355232298 -0.1003156006 -0.0002669649079272805 -4.907006120567375e-05
0.1408446878 -0.1003156006 -0.0002725593239656846 -4.8784004991601234e-05
0.1461661458 -0.1003156006 -0.00027816700121090606 -4.85115498559542e-05
0.1514876038 -0.1003156006 -0.0002837701253964345 -4.8238960907594936e-05
0.1568090618 -0.1003156006 -0.0002893852393163166 -4.7966162563707695e-05
0.1621305197 -0.1003156006 -0.00029496997402484273 -4.769971403813865e-05
0.1674519777 -0.1003156006 -0.00030098708839418575 -4.7274437718429585e-05
0.1727734357 -0.1003156006 -0.00030726280014157104 -4.671725962824509e-05
0.1780948937 -0.1003156006 -0.000313538608894404 -4.616013646727559e-05
0.1834163517 -0.1003156006 -0.0003198090881002503 -4.560299604424111e-05
0.1887378097 -0.1003156006 -0.00032609423763381256 -4.509037799068962e-05
0.1940592676 -0.1003156006 -0.0003323709466668372 -4.462264793609711e-05
0.1993807256 -0.1003156006 -0.0003396595156444207 -4.4389723806184596e-05
0.2047021836 -0.1003156006 -0.0003472834029664087 -4.42252215226235e-05
0.2100236416 -0.1003156006 -0.000354912668565352 -4.407086029931635e-05
0.2153450996 -0.1003156006 -0.0003624833968784451 -4.401410879212044e-05
0.2206665576 -0.1003156006 -0.00037006316541563584 -4.390751568209533e-05
0.2259880155 -0.1003156006 -0.00037765352696995946 -4.3804068772746e-05
0.2313094735 -0.1003156006 -0.00038611571965522026 -4.4345951731496926e-05
0.2366309315 -0.1003156006 -0.0003947654043912122 -4.514250243016906e-05
0.2419523895 -0.1003156006 -0.0004033725936542664 -4.5955313735751215e-05
0.2472738475 -0.1003156006 -0.000411984720218977 -4.6776597295782984e-05
0.2525953054 -0.1003156006 -0.00042058319734194355 -4.758712255554987e-05
0.2579167783 -0.1003156006 -0.0004291537538927148 -4.846490925819524e-05
0.2632382214 -0.1003156006 -0.00043820632677432343 -5.026637201993743e-05
0.2685596943 -0.1003156006 -0.0004474336086964982 -5.229548295259031e-05
0.2738811374 -0.1003156006 -0.0004566812530864732 -5.42894959058083e-05
0.2792026103 -0.1003156006 -0.0004659131259058729 -5.631382597038325e-05
0.2845240533 -0.1003156006 -0.00047506124952166937 -5.837066710748417e-05
0.2898455262 -0.1003156006 -0.00048420075170280103 -6.0428099326544905e-05
0.2951669693 -0.1003156006 -0.0004935412949566718 -6.325986657491483e-05
0.3004884422 -0.1003156006 -0.0005029277958558574 -6.622276297484939e-05
0.3058098853 -0.1003156006 -0.0005122907740008663 -6.92173388955569e-05
0.3111313581 -0.1003156006 -0.0005216371841195174 -7.221170256219603e-05
0.3164528012 -0.1003156006 -0.0005309861765871333 -7.52060710741328e-05
0.3217742741 -0.1003156006 -0.0005403682569462293 -7.821820088017766e-05
0.3270957172 -0.1003156006 -0.0005503948952609184 -8.175772134947867e-05
0.3324171901 -0.1003156006 -0.0005604562349743498 -8.529831389329713e-05
0.3377386332 -0.1003156006 -0.0005705061833330633 -8.88384886160909e-05
0.343060106 -0.1003156006 -0.0005805600853636708 -9.237829231197652e-05
0.3483815491 -0.1003156006 -0.0005905515721574291 -9.601915912676792e-05
0.353703022 -0.1003156006 -0.0006007847041536949 -0.00010001294206793387
0.3590244651 -0.1003156006 -0.0006115916581350888 -0.00010476662244745807
0.364345938 -0.1003156006 -0.0006224090419655 -0.00010951991379743793
0.369667381 -0.1003156006 -0.0006330927100664816 -0.00011432109950097764
0.3749888539 -0.1003156006 -0.0006438144185501147 -0.00011910954801865861
0.380310297 -0.1003156006 -0.0006545395594312682 -0.00012389801629239625
0.3856317699 -0.1003156006 -0.0006654516251938762 -0.00012955679761806303
0.390953213 -0.1003156006 -0.0006763351861935745 -0.0001354957585479433
0.3962746859 -0.1003156006 -0.0006871925907257108 -0.00014144969277612055
0.4015961289 -0.1003156006 -0.0006980675982053026 -0.0001474085416503537
0.4069176018 -0.1003156006 -0.0007089951257902977 -0.0001533549663676302
0.4122390449 -0.1003156006 -0.0007199396155462397 -0.00015960392082508225
0.4175605178 -0.1003156006 -0.0007310934170807108 -0.00016620779978256925
0.4228819609 -0.1003156006 -0.00074225262171169 -0.0001728016814742945
0.4282034338 -0.1003156006 -0.0007534432393310115 -0.00017937265655411244
0.4335248768 -0.1003156006 -0.0007644824627274451 -0.00018606268100652577
0.4388463497 -0.1003156006 -0.000775753902783218 -0.00019297378612062298
0.4441677928 -0.1003156006 -0.0007875804278166754 -0.000200431110365224
0.4494892657 -0.1003156006 -0.0007994240195486296 -0.0002078939242699155
0.4548107088 -0.1003156006 -0.0008111648644381857 -0.00021544359773125618
0.4601321816 -0.1003156006 -0.0008229146159026343 -0.00022295820097530654
0.4654536247 -0.1003156006 -0.0008350385799437018 -0.00023098351315934779
0.4707750976 -0.1003156006 -0.0008476514378632397 -0.00023977772064874466
0.4760965407 -0.1003156006 -0.0008600497265851441 -0.0002486589924955339
0.4814180136 -0.1003156006 -0.0008724433627965142 -0.0002575398798572023
0.4867394567 -0.1003156006 -0.0008848849713728926 -0.0002664043999379004
0.4920609295 -0.1003156006 -0.0008977424296722692 -0.0002764975874547056
0.4973823726 -0.1003156006 -0.0009104847212743276 -0.0002869733265803044
0.5027038455 -0.1003156006 -0.0009232174887604909 -0.00029741125344179704
0.5080252886 -0.1003156006 -0.0009359474516960652 -0.0003078451357785928
0.5133467317 -0.1003156006 -0.0009484304579109668 -0.0003190415122609559
0.5186682343 -0.1003156006 -0.0009612156592885137 -0.0003310743326622691
0.5239896774 -0.1003156006 -0.0009739093896160296 -0.0003431352418441709
0.5293111205 -0.1003156006 -0.0009865983751873493 -0.00035516922368539265
0.5346325636 -0.1003156006 -0.000998842181389709 -0.00036784194371327077
0.5399540663 -0.1003156006 -0.0010112044787308487 -0.00038134971432359914
0.5452755094 -0.1003156006 -0.00102357404299643 -0.0003949020487370985
0.5505969524 -0.1003156006 -0.001035819618020101 -0.00040836333331928235
0.5559183955 -0.1003156006 -0.001047479986342877 -0.0004227540379718403
0.5612398982 -0.1003156006 -0.0010592552344058093 -0.0004376166578569913
0.5665613413 -0.1003156006 -0.001071044592052286 -0.00045245347119445565
0.5718827844 -0.1003156006 -0.0010821985215320848 -0.00046751104244884987
0.5772042274 -0.1003156006 -0.0010931410082973666 -0.00048340440767842167
0.5825257301 -0.1003156006 -0.001103991310172167 -0.0004992873500559592
0.5878471732 -0.1003156006 -0.0011145631307102172 -0.0005153783153910129
0.5931686163 -0.1003156006 -0.0011245110501923554 -0.0005318173878296875
0.5984900594 -0.1003156006 -0.0011346288097953275 -0.0005482947953551386
0.6038115621 -0.1003156006 -0.0011440003891578642 -0.0005652688920766625
0.6091330051 -0.1003156006 -0.0011531720534348183 -0.0005822031377604329
0.6144544482 -0.1003156006 -0.00116168647866565 -0.0005992679165941404
0.6197758913 -0.1003156006 -0.001169921749144262 -0.000616372417206671
0.625097394 -0.1003156006 -0.00117762037842856 -0.0006331552529799032
0.6304188371 -0.1003156006 -0.0011846229307653881 -0.0006498013608015599
0.6357402802 -0.1003156006 -0.0011916358651378877 -0.0006660703406224822
0.6410617828 -0.1003156006 -0.0011981085050396276 -0.0006816074006537838
0.6463832259 -0.1003156006 -0.001204186210898412 -0.0006969739323087348
0.651704669 -0.1003156006 -0.0012098381122203647 -0.0007117779785294828
0.6570261121 -0.1003156006 -0.0012155050217636308 -0.0007255568503314787
0.6623476148 -0.1003156006 -0.0012208276952143525 -0.0007382906287473926
0.6676690578 -0.1003156006 -0.001226240491801271 -0.0007504824801073981
0.6729905009 -0.1003156006 -0.0012319501394824023 -0.0007610094088607439
0.678311944 -0.1003156006 -0.0012383097344995325 -0.0007708789843257476
0.6836334467 -0.1003156006 -0.0012450029313096653 -0.0007796813824937159
0.6889548898 -0.1003156006 -0.0012522397615702223 -0.0007867586241045332
0.6942763329 -0.1003156006 -0.0012610242711203262 -0.0007927780239837647
0.6995977759 -0.1003156006 -0.0012708016917412183 -0.0007977386507725719
0.7049192786 -0.1003156006 -0.0012817743378843993 -0.0008018988240797554
0.7102407217 -0.1003156006 -0.001294394011948963 -0.000804226486398598
0.7155621648 -0.1003156006 -0.0013095075124617101 -0.0008059153628372849
0.7208836079 -0.1003156006 -0.0013268259259826844 -0.000807013990862805
0.7262051105 -0.1003156006 -0.001346076127524625 -0.000807159236957375
0.7315265536 -0.1003156006 -0.0013685800071027894 -0.0008067794797930891
0.7368479967 -0.1003156006 -0.0013944472576943332 -0.0008057922831738195
0.7421694398 -0.1003156006 -0.0014235025078309796 -0.0008047520783180855
0.7474909425 -0.1003156006 -0.0014541712145799781 -0.0008054505730587453
0.7528123856 -0.1003156006 -0.0014903789492597208 -0.000805534159685092
0.7581338286 -0.1003156006 -0.0015296381157825479 -0.0008063372394791397
-0.3008363545 -0.09699654579 5.517357861547395e-05 -7.145758616773656e-05
-0.2955148816 -0.09699654579 4.935682310208845e-05 -6.83708285573604e-05
-0.2901934385 -0.09699654579 4.360145510422593e-05 -6.580342397901419e-05
-0.2848719656 -0.09699654579 4.0595840379688574e-05 -6.212426960922191e-05
-0.2795505226 -0.09699654579 3.7649583704310857e-05 -5.7743769670104146e-05
-0.2742290497 -0.09699654579 3.512617367729157e-05 -5.341558233708607e-05
-0.2689076066 -0.09699654579 3.3642557596299246e-05 -4.841766499803497e-05
-0.2635861337 -0.09699654579 3.0311684810156805e-05 -4.398229060961009e-05
-0.2582646906 -0.09699654579 2.642882278190362e-05 -4.1436209017684164e-05
-0.2529432178 -0.09699654579 2.2323301230135853e-05 -3.912154388817381e-05
-0.2476217598 -0.09699654579 1.8678467266536502e-05 -3.697393345998944e-05
-0.2423003018 -0.09699654579 1.1842959406467624e-05 -3.713607047158659e-05
-0.2369788438 -0.09699654579 1.1469010411739777e-06 -4.123824139071542e-05
-0.2316573858 -0.09699654579 -1.0059842371419756e-05 -4.738831748751048e-05
-0.2263359278 -0.09699654579 -2.1755822194151247e-05 -5.570416264203371e-05
-0.2210144699 -0.09699654579 -2.5754074322796284e-05 -5.819021808309455e-05
-0.2156930119 -0.09699654579 -2.7312486915064775e-05 -5.8679062687923535e-05
-0.2103715539 -0.09699654579 -2.7869480670705733e-05 -5.85755955009568e-05
-0.2050500959 -0.09699654579 -2.7952099770769672e-05 -5.7333395426941924e-05
-0.1997286379 -0.09699654579 -2.7342288763087426e-05 -5.491079447817629e-05
-0.19440718 -0.09699654579 -2.6564719351356733e-05 -5.2661815489506214e-05
-0.189085722 -0.09699654579 -3.4113203061167826e-05 -5.131458440205171e-05
-0.183764264 -0.09699654579 -4.40137287449977e-05 -5.0121759810369885e-05
-0.178442806 -0.09699654579 -5.6080267132887146e-05 -4.834576715814772e-05
-0.173121348 -0.09699654579 -6.309829238653669e-05 -4.750973837805477e-05
-0.16779989 -0.09699654579 -6.83214953212135e-05 -4.680606959791213e-05
-0.1624784321 -0.09699654579 -7.32661285670838e-05 -4.660347185971466e-05
-0.1571569741 -0.09699654579 -7.72345727774647e-05 -4.927870375689352e-05
-0.1518355161 -0.09699654579 -8.065418771404109e-05 -5.296566951616956e-05
-0.1465140581 -0.09699654579 -8.397425227231103e-05 -5.666028164089187e-05
-0.1411926001 -0.09699654579 -8.714325909537115e-05 -6.009295071975691e-05
-0.1358711421 -0.09699654579 -8.859063365367855e-05 -6.197951533561364e-05
-0.1305496842 -0.09699654579 -8.985472500942706e-05 -6.387271146999033e-05
-0.1252282262 -0.09699654579 -9.100685229033079e-05 -6.579323029561576e-05
-0.1199067682 -0.09699654579 -9.231871178869426e-05 -6.706376698366852e-05
-0.1145853102 -0.09699654579 -9.400971556058438e-05 -6.798273671457178e-05
-0.1092638522 -0.09699654579 -9.553990112705528e-05 -6.885058294144856e-05
-0.1039423943 -0.09699654579 -9.689684682649704e-05 -6.9834301994655e-05
-0.09862093627 -0.09699654579 -9.879660942417419e-05 -7.008755654987676e-05
-0.09329947084 -0.09699654579 -0.00010057599175202652 -7.028801502515159e-05
-0.08797801286 -0.09699654579 -0.00010225039648148647 -7.044799269983086e-05
-0.08265655488 -0.09699654579 -0.00010402107618806311 -7.07506526952246e-05
-0.0773350969 -0.09699654579 -0.00010636026793795182 -7.049963393977984e-05
-0.07201363891 -0.09699654579 -0.00010867925736473192 -7.023230999189664e-05
-0.06669218093 -0.09699654579 -0.00011099241519164215 -6.997481223345356e-05
-0.06137072667 -0.09699654579 -0.00011325707315106073 -6.968469770091376e-05
-0.05604926869 -0.09699654579 -0.00011579699434239125 -6.929755990835687e-05
-0.05072781071 -0.09699654579 -0.00011856126690191143 -6.88620158418619e-05
-0.045406349 -0.09699654579 -0.00012132104729800737 -6.842668545334014e-05
-0.04008489102 -0.09699654579 -0.00012403465471026804 -6.795675324296844e-05
-0.03476343304 -0.09699654579 -0.00012682917778069483 -6.741614367577305e-05
-0.02944197692 -0.09699654579 -0.0001300736781495192 -6.658466734883601e-05
-0.02412051894 -0.09699654579 -0.0001333125803049741 -6.57532650701325e-05
-0.01879905909 -0.09699654579 -0.00013655928755455812 -6.492354155654569e-05
-0.01347760204 -0.09699654579 -0.0001397937800963499 -6.40768680941159e-05
-0.00815614406 -0.09699654579 -0.00014328048542101626 -6.317961615161709e-05
-0.00283468538 -0.09699654579 -0.0001470818738495113 -6.217680444183371e-05
0.002486772602 -0.09699654579 -0.0001508615000440134 -6.116915654154571e-05
0.007808230817 -0.09699654579 -0.0001546444865680637 -6.015301217367023e-05
0.0131296888 -0.09699654579 -0.0001584337856960417 -5.914864620081923e-05
0.01845114678 -0.09699654579 -0.0001623750698415966 -5.8259453619257194e-05
0.02377260476 -0.09699654579 -0.00016651444332968266 -5.7400444950812997e-05
0.02909406275 -0.09699654579 -0.00017062056511395096 -5.654251845051111e-05
0.03441552073 -0.09699654579 -0.00017473636427760546 -5.5679402449247843e-05
0.03973697871 -0.09699654579 -0.00017887971728173832 -5.4824589292330606e-05
0.04505843669 -0.09699654579 -0.00018300982105906694 -5.407700598912838e-05
0.05037989467 -0.09699654579 -0.0001873316911178913 -5.3450864048545676e-05
0.05570135266 -0.09699654579 -0.0001916466212867787 -5.283680401046291e-05
0.06102281436 -0.09699654579 -0.00019595078097380423 -5.220372216229394e-05
0.06634426862 -0.09699654579 -0.00020028133559730677 -5.158296329777136e-05
0.0716657266 -0.09699654579 -0.00020460864217463094 -5.096207473796208e-05
0.07698718458 -0.09699654579 -0.00020940848153238166 -5.0417930741897286e-05
0.08230864257 -0.09699654579 -0.00021424403232083483 -4.9865434971248315e-05
0.08763010055 -0.09699654579 -0.0002190991781977468 -4.935665335478688e-05
0.09295155853 -0.09699654579 -0.0002239682001423608 -4.881143117174794e-05
0.09827301651 -0.09699654579 -0.00022882328072538843 -4.827056705446208e-05
0.1035944745 -0.09699654579 -0.0002338351569706298 -4.779961516193012e-05
0.1089159325 -0.09699654579 -0.00023926593812392276 -4.743757610930869e-05
0.1142373979 -0.09699654579 -0.00024472393524418144 -4.7101622146927145e-05
0.1195588559 -0.09699654579 -0.000250161336039824 -4.676210445642243e-05
0.1248803139 -0.09699654579 -0.00025560201904908307 -4.642198943794327e-05
0.1302017719 -0.09699654579 -0.00026105133468204476 -4.609373387367973e-05
0.1355232298 -0.09699654579 -0.0002665882143258146 -4.575255379697634e-05
0.1408446878 -0.09699654579 -0.0002722949669715062 -4.543231714384174e-05
0.1461661458 -0.09699654579 -0.0002779538321239287 -4.5110278495202885e-05
0.1514876038 -0.09699654579 -0.0002835051817007937 -4.477435321282079e-05
0.1568090618 -0.09699654579 -0.00028906456865278156 -4.444215956101898e-05
0.1621305197 -0.09699654579 -0.0002946462584065731 -4.414718111742449e-05
0.1674519777 -0.09699654579 -0.0003007909738490958 -4.356700573236922e-05
0.1727734357 -0.09699654579 -0.00030719383330861583 -4.287575232405575e-05
0.1780948937 -0.09699654579 -0.00031356249119792525 -4.213895718833315e-05
0.1834163517 -0.09699654579 -0.0003199523809138601 -4.142344814655318e-05
0.1887378097 -0.09699654579 -0.0003263418450435702 -4.080826178837809e-05
0.1940592676 -0.09699654579 -0.00033275182290818625 -4.019317134225492e-05
0.1993807256 -0.09699654579 -0.0003403266023790649 -3.983033413320108e-05
0.2047021836 -0.09699654579 -0.0003482344136261925 -3.9529710312606626e-05
0.2100236416 -0.09699654579 -0.0003560703934366539 -3.934285984688602e-05
0.2153450996 -0.09699654579 -0.0003638922404593686 -3.915813478418176e-05
0.2206665576 -0.09699654579 -0.00037171691909558075 -3.8973126054530774e-05
0.2259880155 -0.09699654579 -0.00037956239472157 -3.8787700954943496e-05
0.2313094735 -0.09699654579 -0.00038819797578652695 -3.932880731862709e-05
0.2366309315 -0.09699654579 -0.00039698017720939463 -4.0020320048401626e-05
0.2419523895 -0.09699654579 -0.0004057643622910575 -4.07114204732829e-05
0.2472738475 -0.09699654579 -0.0004145463209629014 -4.1403041931142365e-05
0.2525953054 -0.09699654579 -0.0004232635883637496 -4.215138882991816e-05
0.2579167783 -0.09699654579 -0.00043192424561078576 -4.292956080125656e-05
0.2632382214 -0.09699654579 -0.00044115664281711015 -4.468275900757866e-05
0.2685596943 -0.09699654579 -0.00045051556686926157 -4.662788059185356e-05
0.2738811374 -0.09699654579 -0.0004598419258199465 -4.8598970325051494e-05
0.2792026103 -0.09699654579 -0.0004690840115339469 -5.057954696814671e-05
0.2845240533 -0.09699654579 -0.0004783574150407356 -5.25691152662752e-05
0.2898455262 -0.09699654579 -0.00048763966916149883 -5.4537874203045867e-05
0.2951669693 -0.09699654579 -0.0004970276041893388 -5.734401369047364e-05
0.3004884422 -0.09699654579 -0.0005064123786825 -6.027082136868137e-05
0.3058098853 -0.09699654579 -0.0005158221595771898 -6.320609746275974e-05
0.3111313581 -0.09699654579 -0.0005252235147307849 -6.61414475176461e-05
0.3164528012 -0.09699654579 -0.000534614469836985 -6.909808549958389e-05
0.3217742741 -0.09699654579 -0.0005440059635607189 -7.210198817009956e-05
0.3270957172 -0.09699654579 -0.0005540022021609043 -7.555521976680972e-05
0.3324171901 -0.09699654579 -0.0005639900508401295 -7.900815139366407e-05
0.3377386332 -0.09699654579 -0.0005739459893783331 -8.250041010935315e-05
0.343060106 -0.09699654579 -0.0005839104497172179 -8.601368671023194e-05
0.3483815491 -0.09699654579 -0.000593866788158093 -8.952906051792893e-05
0.353703022 -0.09699654579 -0.0006041487949414374 -9.345139730779353e-05
0.3590244651 -0.09699654579 -0.0006149837888536107 -9.81523682038793e-05
0.364345938 -0.09699654579 -0.0006257197841163798 -0.00010289085553034276
0.369667381 -0.09699654579 -0.0006364937676432814 -0.00010763670785242291
0.3749888539 -0.09699654579 -0.000647354636662344 -0.00011235748974861117
0.380310297 -0.09699654579 -0.0006581748864893272 -0.00011710622337540547
0.3856317699 -0.09699654579 -0.0006690868647539198 -0.0001228089901401623
0.390953213 -0.09699654579 -0.0006800752497764022 -0.00012872443528823114
0.3962746859 -0.09699654579 -0.0006910710348316066 -0.00013465097108006157
0.4015961289 -0.09699654579 -0.0007020352688570211 -0.0001405703490752778
0.4069176018 -0.09699654579 -0.0007129323418917073 -0.00014651472971838946
0.4122390449 -0.09699654579 -0.0007239525268447124 -0.00015271492844979058
0.4175605178 -0.09699654579 -0.0007351168145130404 -0.00015921369235443722
0.4228819609 -0.09699654579 -0.0007462798974215664 -0.00016576694530679475
0.4282034338 -0.09699654579 -0.0007573871588101517 -0.00017236304422295183
0.4335248768 -0.09699654579 -0.0007685213522505006 -0.00017894516301428983
0.4388463497 -0.09699654579 -0.0007799651741546726 -0.00018570896356943654
0.4441677928 -0.09699654579 -0.0007919058014960073 -0.00019308733895355833
0.4494892657 -0.09699654579 -0.0008038444064777397 -0.00020048545564365437
0.4548107088 -0.09699654579 -0.0008157724847326545 -0.00020786773822465272
0.4601321816 -0.09699654579 -0.0008277239688862765 -0.00021525585034430923
0.4654536247 -0.09699654579 -0.0008398672998308342 -0.00022331048274319882
0.4707750976 -0.09699654579 -0.0008526287900589453 -0.00023205008065823815
0.4760965407 -0.09699654579 -0.0008654623843348823 -0.00024075829156807027
0.4814180136 -0.09699654579 -0.0008782277606476709 -0.00024949650526947463
0.4867394567 -0.09699654579 -0.0008907848446562741 -0.00025831325887294845
0.4920609295 -0.09699654579 -0.0009037589976981358 -0.00026843147389530946
0.4973823726 -0.09699654579 -0.0009168269100982025 -0.0002788577545433942
0.5027038455 -0.09699654579 -0.0009298663976369478 -0.00028925339918326235
0.5080252886 -0.09699654579 -0.0009428290717594878 -0.0002996921286770486
0.5133467317 -0.09699654579 -0.0009558342283932872 -0.0003109309770492928
0.5186682343 -0.09699654579 -0.0009688670838539812 -0.0003230149354344333
0.5239896774 -0.09699654579 -0.0009815720322687343 -0.0003350980373075265
0.5293111205 -0.09699654579 -0.0009944893486426726 -0.0003471666125569759
0.5346325636 -0.09699654579 -0.0010073370572076436 -0.00035997707232085074
0.5399540663 -0.09699654579 -0.0010199102865459453 -0.0003735592078989708
0.5452755094 -0.09699654579 -0.0010322731084460369 -0.0003871216434177543
0.5505969524 -0.09699654579 -0.001044864370153202 -0.00040070272908908594
0.5559183955 -0.09699654579 -0.0010571057102724192 -0.00041536265990002873
0.5612398982 -0.09699654579 -0.0010688289730263702 -0.0004302113505853052
0.5665613413 -0.09699654579 -0.0010806057033182236 -0.0004450738757431884
0.5718827844 -0.09699654579 -0.0010923691546339876 -0.00046052721891734727
0.5772042274 -0.09699654579 -0.0011034098261155387 -0.00047647930809277105
0.5825257301 -0.09699654579 -0.0011144772243420148 -0.0004924339353695763
0.5878471732 -0.09699654579 -0.0011251923054604086 -0.0005088457548226008
0.5931686163 -0.09699654579 -0.0011353024684722071 -0.0005255679272427566
0.5984900594 -0.09699654579 -0.001145414312211455 -0.0005424601901131838
0.6038115621 -0.09699654579 -0.001154725005910939 -0.000559479828808767
0.6091330051 -0.09699654579 -0.0011637707352127333 -0.0005768984156268046
0.6144544482 -0.09699654579 -0.0011724291721673745 -0.0005940150740912208
0.6197758913 -0.09699654579 -0.0011802437265159874 -0.0006113091802928229
0.625097394 -0.09699654579 -0.0011880481254334105 -0.0006285530006109744
0.6304188371 -0.09699654579 -0.0011950990857751888 -0.0006451430479016575
0.6357402802 -0.09699654579 -0.0012016198439491518 -0.000661920176384174
0.6410617828 -0.09699654579 -0.0012079224397497249 -0.0006781253222071841
0.6463832259 -0.09699654579 -0.0012133987877230624 -0.0006934904935018727
0.651704669 -0.09699654579 -0.0012186558153294829 -0.0007085126046519898
0.6570261121 -0.09699654579 -0.00122367153905279 -0.0007220751571071071
0.6623476148 -0.09699654579 -0.0012287314061180394 -0.0007350917140936479
0.6676690578 -0.09699654579 -0.0012336873296561759 -0.0007466403178152014
0.6729905009 -0.09699654579 -0.001238835381204115 -0.000757422027853163
0.678311944 -0.09699654579 -0.0012440501721307738 -0.0007669957080301909
0.6836334467 -0.09699654579 -0.0012497276536170944 -0.0007753822915799034
0.6889548898 -0.09699654579 -0.0012565651788676584 -0.0007823625245917025
0.6942763329 -0.09699654579 -0.0012642345475836515 -0.0007877043029488599
0.6995977759 -0.09699654579 -0.001272833068482343 -0.0007915318213034812
0.7049192786 -0.09699654579 -0.001283181425651137 -0.0007945353259820566
0.7102407217 -0.09699654579 -0.0012954867630332455 -0.0007961774712461498
0.7155621648 -0.09699654579 -0.0013101885218193797 -0.0007964538660495639
0.7208836079 -0.09699654579 -0.0013267941054834846 -0.0007952804950925761
0.7262051105 -0.09699654579 -0.0013462439525364443 -0.0007935813955780065
0.7315265536 -0.09699654579 -0.0013675947085963502 -0.0007919878979889558
0.7368479967 -0.09699654579 -0.0013930758591364878 -0.0007890210199332283
0.7421694398 -0.09699654579 -0.0014219634035686284 -0.0007862786152864284
0.7474909425 -0.09699654579 -0.0014540633844763087 -0.0007834611544852155
0.7528123856 -0.09699654579 -0.001489920580790178 -0.0007816269812744492
0.7581338286 -0.09699654579 -0.001530188468547683 -0.0007809427825190337
-0.3008363545 -0.09367749095 5.6380373704360004e-05 -6.815072816300479e-05
-0.2955148816 -0.09367749095 5.0505899147487875e-05 -6.532584168875422e-05
-0.2901934385 -0.09367749095 4.449254062391945e-05 -6.333216880187556e-05