VARIABLES = X,Y,phix,phiy
ZONE I=200,J=200,F=POINT 
-0.3008363545 -0.1003156006 0.0001743739405218753 -6.929275969328976e-05
-0.2955148816 -0.1003156006 0.00017705872784854634 -7.522819446018667e-05
-0.2901934385 -0.1003156006 0.00018111475478042126 -7.953094744620227e-05
-0.2848719656 -0.1003156006 0.0001856908532885392 -8.401012308770304e-05
-0.2795505226 -0.1003156006 0.0001911531975536859 -8.802377989890596e-05
-0.2742290497 -0.1003156006 0.00019736850869632696 -9.110378514900149e-05
-0.2689076066 -0.1003156006 0.00020405094103719728 -9.435588164857217e-05
-0.2635861337 -0.1003156006 0.00020931486348422555 -9.658752708427441e-05
-0.2582646906 -0.1003156006 0.00021528709465725042 -9.760868631009352e-05
-0.2529432178 -0.1003156006 0.00022125054789966676 -9.80644814433453e-05
-0.2476217598 -0.1003156006 0.0002276756487055996 -9.874588957938209e-05
-0.2423003018 -0.1003156006 0.0002330840893849599 -0.00010094327526520222
-0.2369788438 -0.1003156006 0.0002397980450278837 -0.00010374758697082127
-0.2316573858 -0.1003156006 0.0002472437362615894 -0.00010667544580310289
-0.2263359278 -0.1003156006 0.0002544622659711896 -0.00010991069538184191
-0.2210144699 -0.1003156006 0.0002586125888095801 -0.00011085138579671802
-0.2156930119 -0.1003156006 0.0002627618653706413 -0.0001116451661901083
-0.2103715539 -0.1003156006 0.0002668358319063152 -0.0001122618930422965
-0.2050500959 -0.1003156006 0.0002726366658314507 -0.00011323537205477318
-0.1997286379 -0.1003156006 0.00027854090281792255 -0.00011307926134462839
-0.19440718 -0.1003156006 0.0002848100311700633 -0.00011303078751871439
-0.189085722 -0.1003156006 0.0002900833887773666 -0.00011217454031722298
-0.183764264 -0.1003156006 0.0002948790627938181 -0.00011090281557514333
-0.178442806 -0.1003156006 0.0002998956788329171 -0.00010964939831292273
-0.173121348 -0.1003156006 0.000305668445960405 -0.00010874057070774872
-0.16779989 -0.1003156006 0.00031149973747812725 -0.00010720014262463125
-0.1624784321 -0.1003156006 0.000317166348501648 -0.00010572710598781673
-0.1571569741 -0.1003156006 0.0003229321539919369 -0.0001038490807193323
-0.1518355161 -0.1003156006 0.0003285877256547549 -0.00010111371287793644
-0.1465140581 -0.1003156006 0.0003341310444085894 -9.835434535606285e-05
-0.1411926001 -0.1003156006 0.00033977574451914437 -9.531141464134953e-05
-0.1358711421 -0.1003156006 0.0003443810814063451 -9.162814813213118e-05
-0.1305496842 -0.1003156006 0.00034900389646550433 -8.794438213645049e-05
-0.1252282262 -0.1003156006 0.0003535435267060464 -8.403544663297968e-05
-0.1199067682 -0.1003156006 0.00035714761599387466 -8.03071139309864e-05
-0.1145853102 -0.1003156006 0.00036038678434172013 -7.64452612963621e-05
-0.1092638522 -0.1003156006 0.00036361737895367367 -7.246849063551315e-05
-0.1039423943 -0.1003156006 0.00036689656373830123 -6.867725959488702e-05
-0.09862093627 -0.1003156006 0.0003694540350609005 -6.518221287864521e-05
-0.09329947084 -0.1003156006 0.0003719911569902259 -6.168865293789209e-05
-0.08797801286 -0.1003156006 0.0003745358116557764 -5.8195173701433195e-05
-0.08265655488 -0.1003156006 0.00037723661408842424 -5.4726023553176625e-05
-0.0773350969 -0.1003156006 0.000379668665313123 -5.151214807487065e-05
-0.07201363891 -0.1003156006 0.00038208776721893316 -4.834653648298794e-05
-0.06669218093 -0.1003156006 0.0003844989378573822 -4.518111960084473e-05
-0.06137072667 -0.1003156006 0.0003869321266331164 -4.196275614847104e-05
-0.05604926869 -0.1003156006 0.00038917771844246 -3.875316657853614e-05
-0.05072781071 -0.1003156006 0.0003912729484933439 -3.549875870967575e-05
-0.045406349 -0.1003156006 0.00039336161182354626 -3.227512379431339e-05
-0.04008489102 -0.1003156006 0.0003954493439521984 -2.9038823182773152e-05
-0.03476343304 -0.1003156006 0.00039749239104593966 -2.5716794263873458e-05
-0.02944197692 -0.1003156006 0.0003991727871741154 -2.2189899338502446e-05
-0.02412051894 -0.1003156006 0.0004008565472596752 -1.865034064750901e-05
-0.01879905909 -0.1003156006 0.00040253080723416944 -1.5087782586936723e-05
-0.01347760204 -0.1003156006 0.0004042156944872082 -1.155463758729945e-05
-0.00815614406 -0.1003156006 0.00040570081005077087 -7.962294445436885e-06
-0.00283468538 -0.1003156006 0.00040693665326355837 -4.331445100132402e-06
0.002486772602 -0.1003156006 0.0004081603957554618 -6.707747555579952e-07
0.007808230817 -0.1003156006 0.0004093803393694295 2.994088438473726e-06
0.0131296888 -0.1003156006 0.00041060793410907504 6.630070194063581e-06
0.01845114678 -0.1003156006 0.00041167399464191515 1.019255796459142e-05
0.02377260476 -0.1003156006 0.0004125156272807098 1.3682505539237871e-05
0.02909406275 -0.1003156006 0.00041336183422902093 1.7208124657000426e-05
0.03441552073 -0.1003156006 0.00041421363341049655 2.073421890109288e-05
0.03973697871 -0.1003156006 0.00041506179757592456 2.422979179859923e-05
0.04505843669 -0.1003156006 0.0004157327002324801 2.7795811662584377e-05
0.05037989467 -0.1003156006 0.0004159521440841128 3.145084748766444e-05
0.05570135266 -0.1003156006 0.0004161767137386779 3.512142726872099e-05
0.06102281436 -0.1003156006 0.0004164048950876473 3.880931821075821e-05
0.06634426862 -0.1003156006 0.00041662712520949905 4.246321057629117e-05
0.0716657266 -0.1003156006 0.00041684539871431693 4.6110146893400646e-05
0.07698718458 -0.1003156006 0.00041676345329551105 4.968274232054544e-05
0.08230864257 -0.1003156006 0.0004166097053083392 5.323661342215399e-05
0.08763010055 -0.1003156006 0.00041646627634536884 5.678614376564838e-05
0.09295155853 -0.1003156006 0.0004163249855570353 6.032743881986641e-05
0.09827301651 -0.1003156006 0.0004161734965919884 6.387318902320313e-05
0.1035944745 -0.1003156006 0.0004159141482970274 6.751060319345796e-05
0.1089159325 -0.1003156006 0.00041531943183908374 7.128109931253371e-05
0.1142373979 -0.1003156006 0.00041474681777559135 7.505134663981654e-05
0.1195588559 -0.1003156006 0.00041414249302935475 7.874713707661376e-05
0.1248803139 -0.1003156006 0.00041356290950819713 8.246126315090928e-05
0.1302017719 -0.1003156006 0.00041297828919055024 8.620534927926674e-05
0.1355232298 -0.1003156006 0.00041180641721210587 8.98894986076345e-05
0.1408446878 -0.1003156006 0.0004101778590939861 9.346890542013323e-05
0.1461661458 -0.1003156006 0.0004085819477819792 9.701084317818696e-05
0.1514876038 -0.1003156006 0.0004069950725309911 0.00010055238692184588
0.1568090618 -0.1003156006 0.00040539852977207333 0.00010409371734851477
0.1621305197 -0.1003156006 0.00040379740609846883 0.00010763763997600952
0.1674519777 -0.1003156006 0.0004019731220724868 0.00011057848850936108
0.1727734357 -0.1003156006 0.0003999672767122826 0.00011329058710831966
0.1780948937 -0.1003156006 0.00039795626548022015 0.0001160020686041143
0.1834163517 -0.1003156006 0.00039595197820575947 0.00011871412282761496
0.1887378097 -0.1003156006 0.000393971362979698 0.00012142280736240588
0.1940592676 -0.1003156006 0.0003920203031800204 0.00012416978308468679
0.1993807256 -0.1003156006 0.00039035398600101046 0.00012672635074703276
0.2047021836 -0.1003156006 0.00038876017364726967 0.00012920424693787572
0.2100236416 -0.1003156006 0.00038715776933988765 0.00013168375246163435
0.2153450996 -0.1003156006 0.00038556659866954975 0.00013415368090207358
0.2206665576 -0.1003156006 0.0003839686257977727 0.00013664164675468408
0.2259880155 -0.1003156006 0.00038235538486846465 0.00013913211983536405
0.2313094735 -0.1003156006 0.00038089597394585974 0.00014191680008709845
0.2366309315 -0.1003156006 0.0003794306805300198 0.00014474735733421287
0.2419523895 -0.1003156006 0.0003779504790486096 0.00014757943840906947
0.2472738475 -0.1003156006 0.0003764706701590536 0.00015040873516708206
0.2525953054 -0.1003156006 0.000375012512993023 0.000153212940326282
0.2579167783 -0.1003156006 0.0003735317804349328 0.00015599566366612049
0.2632382214 -0.1003156006 0.00037169085621615834 0.00015926665934778126
0.2685596943 -0.1003156006 0.00036975926111874164 0.0001626499549639965
0.2738811374 -0.1003156006 0.0003678430105008614 0.0001660714150989171
0.2792026103 -0.1003156006 0.0003659234478423137 0.0001694577347221684
0.2845240533 -0.1003156006 0.0003639334037555171 0.00017278899904371806
0.2898455262 -0.1003156006 0.0003619638520311089 0.00017612013523264972
0.2951669693 -0.1003156006 0.0003590267450767421 0.0001795869195355222
0.3004884422 -0.1003156006 0.0003559459464444948 0.00018304498249628162
0.3058098853 -0.1003156006 0.0003528973839816991 0.0001864189473443419
0.3111313581 -0.1003156006 0.00034983815177103714 0.00018979483405442594
0.3164528012 -0.1003156006 0.0003467851099175764 0.00019316968668619178
0.3217742741 -0.1003156006 0.0003437578760726443 0.00019653909219221694
0.3270957172 -0.1003156006 0.0003402697608870232 0.000199298197079575
0.3324171901 -0.1003156006 0.0003367714209078967 0.0002020532756185528
0.3377386332 -0.1003156006 0.000333274645303074 0.00020480705600160688
0.343060106 -0.1003156006 0.00032977544119106234 0.000207563962639759
0.3483815491 -0.1003156006 0.0003263390912659041 0.00021031125361101655
0.353703022 -0.1003156006 0.00032300724590273973 0.00021307521014008238
0.3590244651 -0.1003156006 0.0003199262718297379 0.00021585379816594128
0.364345938 -0.1003156006 0.0003168223853487848 0.0002186357018841708
0.369667381 -0.1003156006 0.0003136724907743603 0.00022141357546663626
0.3749888539 -0.1003156006 0.0003105349360642171 0.00022419405082431648
0.380310297 -0.1003156006 0.00030740445908643705 0.00022697476336615443
0.3856317699 -0.1003156006 0.0003040238064980656 0.00023034578309636083
0.390953213 -0.1003156006 0.0003005055727119801 0.00023380581141984144
0.3962746859 -0.1003156006 0.00029697360208397736 0.00023725786131926704
0.4015961289 -0.1003156006 0.00029348818424379487 0.00024070681530611243
0.4069176018 -0.1003156006 0.0002899672824119415 0.0002441531685553272
0.4122390449 -0.1003156006 0.0002861043114198415 0.00024756393460867047
0.4175605178 -0.1003156006 0.0002817368752276516 0.0002510863209643658
0.4228819609 -0.1003156006 0.00027737414857647533 0.00025463905761527277
0.4282034338 -0.1003156006 0.00027299965133320656 0.0002581890041311764
0.4335248768 -0.1003156006 0.00026865979174842786 0.0002616543499401726
0.4388463497 -0.1003156006 0.00026419726180813244 0.00026509846138469576
0.4441677928 -0.1003156006 0.0002594695891338958 0.0002684592760682999
0.4494892657 -0.1003156006 0.0002547298372342233 0.0002718216851476551
0.4548107088 -0.1003156006 0.00025000060896060856 0.0002751780525130367
0.4601321816 -0.1003156006 0.00024526027952500716 0.000278532881811927
0.4654536247 -0.1003156006 0.00024058256300156188 0.0002819555012487957
0.4707750976 -0.1003156006 0.0002359386099177385 0.00028550957079798275
0.4760965407 -0.1003156006 0.00023126948894423025 0.000289069384721879
0.4814180136 -0.1003156006 0.0002265801755061844 0.00029262795012101876
0.4867394567 -0.1003156006 0.00022191523241355562 0.0002961850752426795
0.4920609295 -0.1003156006 0.00021730240198584294 0.00030020092227284596
0.4973823726 -0.1003156006 0.00021275623945324595 0.0003043678723240538
0.5027038455 -0.1003156006 0.00020819009285143262 0.00030852282626835033
0.5080252886 -0.1003156006 0.00020362451921558553 0.0003126824574591838
0.5133467317 -0.1003156006 0.00019894712007453703 0.00031724642522113134
0.5186682343 -0.1003156006 0.00019442039175174378 0.00032231869776049607
0.5239896774 -0.1003156006 0.0001899600569039713 0.0003273856898216364
0.5293111205 -0.1003156006 0.00018540657432065158 0.0003324576180202966
0.5346325636 -0.1003156006 0.00018078057835769752 0.00033808935821217235
0.5399540663 -0.1003156006 0.00017635640435305106 0.00034445997290556316
0.5452755094 -0.1003156006 0.00017211546307700136 0.0003508371156453306
0.5505969524 -0.1003156006 0.0001675814645335018 0.00035720399666776855
0.5559183955 -0.1003156006 0.00016300283383770693 0.00036487021038904445
0.5612398982 -0.1003156006 0.00015882237888420803 0.00037305172739654697
0.5665613413 -0.1003156006 0.00015456515961789576 0.00038121143751131706
0.5718827844 -0.1003156006 0.00014983099131452048 0.0003902067959633718
0.5772042274 -0.1003156006 0.0001454830809223183 0.0004006338459266634
0.5825257301 -0.1003156006 0.00014125113892976134 0.0004111123035891989
0.5878471732 -0.1003156006 0.00013626746288554738 0.00042256081264847715
0.5931686163 -0.1003156006 0.0001314944369161386 0.0004357358647148778
0.5984900594 -0.1003156006 0.00012677874645685482 0.00044884809410434076
0.6038115621 -0.1003156006 0.0001216036535403492 0.000464276789974642
0.6091330051 -0.1003156006 0.00011606542668468602 0.00048015544498346486
0.6144544482 -0.1003156006 0.00011073444094641996 0.0004980429858440247
0.6197758913 -0.1003156006 0.00010432260192110559 0.0005172734556514509
0.625097394 -0.1003156006 9.75527132658442e-05 0.0005380174880217687
0.6304188371 -0.1003156006 9.013810224148635e-05 0.0005615594482550935
0.6357402802 -0.1003156006 8.10540043549728e-05 0.0005859302776159988
0.6410617828 -0.1003156006 7.145641108783836e-05 0.0006132503212755875
0.6463832259 -0.1003156006 6.078718429086329e-05 0.0006423618812124836
0.651704669 -0.1003156006 4.9580202032751764e-05 0.000673381116682925
0.6570261121 -0.1003156006 3.5084589645529944e-05 0.0007072875461760177
0.6623476148 -0.1003156006 1.923718149274927e-05 0.0007442627149254623
0.6676690578 -0.1003156006 1.6312713652602269e-06 0.0007835441105746363
0.6729905009 -0.1003156006 -2.0186561552206878e-05 0.0008270832832182721
0.678311944 -0.1003156006 -4.5301334781128044e-05 0.0008722808034106771
0.6836334467 -0.1003156006 -7.327622062463211e-05 0.0009207036054666913
0.6889548898 -0.1003156006 -0.00010560244251759478 0.0009736641650369464
0.6942763329 -0.1003156006 -0.00014378022417699325 0.001029049156087639
0.6995977759 -0.1003156006 -0.00018685346166015 0.0010874239096280538
0.7049192786 -0.1003156006 -0.00023546196926209784 0.0011483424118009721
0.7102407217 -0.1003156006 -0.00029129590296220057 0.0012132125820019915
0.7155621648 -0.1003156006 -0.000356129240050515 0.001279914404318228
0.7208836079 -0.1003156006 -0.00042935509528276396 0.0013475270262713979
0.7262051105 -0.1003156006 -0.0005109758864616054 0.0014169445066369555
0.7315265536 -0.1003156006 -0.0006037656431258393 0.0014872330800777662
0.7368479967 -0.1003156006 -0.0007108017051601056 0.0015577641950480408
0.7421694398 -0.1003156006 -0.0008292078515421045 0.0016279810772860245
0.7474909425 -0.1003156006 -0.0009551826044750214 0.0016915128604352387
0.7528123856 -0.1003156006 -0.0010997570391298262 0.0017535028354906741
0.7581338286 -0.1003156006 -0.0012578436036150076 0.0018111339896841948
-0.3008363545 -0.09699654579 0.0001711487107020326 -7.135327384785645e-05
-0.2955148816 -0.09699654579 0.00017408842297171058 -7.694307662931479e-05
-0.2901934385 -0.09699654579 0.00017693791206664528 -8.284750476626195e-05
-0.2848719656 -0.09699654579 0.00018179444832643117 -8.72364153785034e-05
-0.2795505226 -0.09699654579 0.00018703217003986238 -9.097688218349102e-05
-0.2742290497 -0.09699654579 0.00019328119628365468 -9.458889766302477e-05
-0.2689076066 -0.09699654579 0.00020035653440101644 -9.745607136801753e-05
-0.2635861337 -0.09699654579 0.00020620311489741755 -0.00010036566947010913
-0.2582646906 -0.09699654579 0.00021214269220106073 -0.00010146998909457167
-0.2529432178 -0.09699654579 0.00021848875768774883 -0.00010227055376705547
-0.2476217598 -0.09699654579 0.00022502916549993644 -0.00010249486296596401
-0.2423003018 -0.09699654579 0.00023084621123225585 -0.00010404894285929828
-0.2369788438 -0.09699654579 0.00023768559100043637 -0.00010688708632708716
-0.2316573858 -0.09699654579 0.0002455566550327299 -0.00010985454880821851
-0.2263359278 -0.09699654579 0.0002537637440913716 -0.00011341371276470578
-0.2210144699 -0.09699654579 0.0002581124579450105 -0.00011518069024804435
-0.2156930119 -0.09699654579 0.00026238473511965536 -0.00011597611100809988
-0.2103715539 -0.09699654579 0.0002669033638780293 -0.0001157145575105229
-0.2050500959 -0.09699654579 0.00027245573923572033 -0.00011594224270492722
-0.1997286379 -0.09699654579 0.0002787484933453368 -0.0001158972525159343
-0.19440718 -0.09699654579 0.00028493285566020627 -0.00011553801285608751
-0.189085722 -0.09699654579 0.0002901542353208649 -0.00011476075498217687
-0.183764264 -0.09699654579 0.00029561069321326904 -0.00011355071529033152
-0.178442806 -0.09699654579 0.00030132590399166627 -0.0001134659762669199
-0.173121348 -0.09699654579 0.000307186783875573 -0.0001126374017821806
-0.16779989 -0.09699654579 0.00031281844130597947 -0.00011128557025920904
-0.1624784321 -0.09699654579 0.00031874426523882096 -0.0001096361618596749
-0.1571569741 -0.09699654579 0.00032495627485954696 -0.00010751412358556156
-0.1518355161 -0.09699654579 0.0003307182821483828 -0.00010462838781961522
-0.1465140581 -0.09699654579 0.0003365439033064344 -0.0001015249573467304
-0.1411926001 -0.09699654579 0.0003420093503916699 -9.850220754621304e-05
-0.1358711421 -0.09699654579 0.00034654280453046637 -9.454908202348122e-05
-0.1305496842 -0.09699654579 0.0003509658974428215 -9.055774669282276e-05
-0.1252282262 -0.09699654579 0.00035559280388591986 -8.653765110128231e-05
-0.1199067682 -0.09699654579 0.0003593093124439978 -8.248597304694191e-05
-0.1145853102 -0.09699654579 0.0003626263249051194 -7.853336088026239e-05
-0.1092638522 -0.09699654579 0.00036592160069856105 -7.448494587173308e-05
-0.1039423943 -0.09699654579 0.00036919709360191857 -7.043957450171194e-05
-0.09862093627 -0.09699654579 0.0003718223721276134 -6.69259029843048e-05
-0.09329947084 -0.09699654579 0.00037448106367403135 -6.336820985706164e-05
-0.08797801286 -0.09699654579 0.0003771441108962317 -5.978410473819749e-05
-0.08265655488 -0.09699654579 0.00037987598810377085 -5.630944426293262e-05
-0.0773350969 -0.09699654579 0.00038231426435721697 -5.307313819351099e-05
-0.07201363891 -0.09699654579 0.0003847556844881174 -4.983854308809658e-05
-0.06669218093 -0.09699654579 0.0003872114738188656 -4.6607508199507036e-05
-0.06137072667 -0.09699654579 0.00038966609002397996 -4.335537260313109e-05
-0.05604926869 -0.09699654579 0.00039193677462383937 -4.006815056812757e-05
-0.05072781071 -0.09699654579 0.00039405481713895244 -3.681329552404483e-05
-0.045406349 -0.09699654579 0.0003961532537184042 -3.3558663881086335e-05
-0.04008489102 -0.09699654579 0.00039827522267167306 -3.0275387941394108e-05
-0.03476343304 -0.09699654579 0.00040035752663620004 -2.6896132654553027e-05
-0.02944197692 -0.09699654579 0.00040206702866317365 -2.330159783050972e-05
-0.02412051894 -0.09699654579 0.00040376803140262186 -1.970204225803931e-05
-0.01879905909 -0.09699654579 0.0004054796037965289 -1.6110085917765093e-05
-0.01347760204 -0.09699654579 0.00040719455710573924 -1.2507045517571568e-05
-0.00815614406 -0.09699654579 0.0004086970217844525 -8.848462379060664e-06
-0.00283468538 -0.09699654579 0.0004099185416395987 -5.160318457914133e-06
0.002486772602 -0.09699654579 0.0004111342410564319 -1.4666194334587714e-06
0.007808230817 -0.09699654579 0.00041233774901454226 2.2331112198841643e-06
0.0131296888 -0.09699654579 0.00041355880087529925 5.9227600934796945e-06
0.01845114678 -0.09699654579 0.0004146066648090977 9.551902796390043e-06
0.02377260476 -0.09699654579 0.00041544505761035173 1.3115289556417145e-05
0.02909406275 -0.09699654579 0.00041627647340612743 1.6691960898214692e-05
0.03441552073 -0.09699654579 0.00041712359311544796 2.027615666200393e-05
0.03973697871 -0.09699654579 0.0004179535762748557 2.3837836683605447e-05
0.04505843669 -0.09699654579 0.0004185903207970725 2.7476126000587862e-05
0.05037989467 -0.09699654579 0.00041878983429984213 3.1192445735176235e-05
0.05570135266 -0.09699654579 0.0004189814818148659 3.490077567991631e-05
0.06102281436 -0.09699654579 0.0004191693898313623 3.862447875472273e-05
0.06634426862 -0.09699654579 0.0004193590270883484 4.2334750474671595e-05
0.0716657266 -0.09699654579 0.00041956852634741806 4.604500607488096e-05
0.07698718458 -0.09699654579 0.0004194645297608681 4.965717743608778e-05
0.08230864257 -0.09699654579 0.0004193216029809749 5.325042235233952e-05
0.08763010055 -0.09699654579 0.00041917606304674534 5.682475752959436e-05
0.09295155853 -0.09699654579 0.00041904173991877684 6.039524197772357e-05
0.09827301651 -0.09699654579 0.000418890370180118 6.39813386472047e-05
0.1035944745 -0.09699654579 0.00041863034413696824 6.7691928779928e-05
0.1089159325 -0.09699654579 0.0004180818837020795 7.158093797980468e-05
0.1142373979 -0.09699654579 0.00041752885721371474 7.54154702388637e-05
0.1195588559 -0.09699654579 0.00041697445540054136 7.922941022081947e-05
0.1248803139 -0.09699654579 0.0004164012018889418 8.304283561981955e-05
0.1302017719 -0.09699654579 0.00041586942841736763 8.686788067227689e-05
0.1355232298 -0.09699654579 0.0004146277863254413 9.066133435974984e-05
0.1408446878 -0.09699654579 0.0004129791645009498 9.430186949323455e-05
0.1461661458 -0.09699654579 0.0004113118732866834 9.795588279624226e-05
0.1514876038 -0.09699654579 0.00040963039224999005 0.0001016090170644315
0.1568090618 -0.09699654579 0.0004079466496963441 0.00010526215336934862
0.1621305197 -0.09699654579 0.00040630111255203917 0.00010886104505270516
0.1674519777 -0.09699654579 0.0004043676935804357 0.00011178409788778074
0.1727734357 -0.09699654579 0.00040229828661436596 0.00011443160257033493
0.1780948937 -0.09699654579 0.00040018441952360416 0.00011707272792971135
0.1834163517 -0.09699654579 0.00039810475167312157 0.00011970774270002042
0.1887378097 -0.09699654579 0.00039605800854453836 0.00012239490154709995
0.1940592676 -0.09699654579 0.00039402068990792053 0.00012508183103403632
0.1993807256 -0.09699654579 0.0003923575704837086 0.00012758370862464054
0.2047021836 -0.09699654579 0.00039079776897012013 0.00013001792522614717
0.2100236416 -0.09699654579 0.00038923413198660304 0.00013247890331367698
0.2153450996 -0.09699654579 0.000387648422650585 0.00013495431621422533
0.2206665576 -0.09699654579 0.00038606656162235866 0.00013743044718129337
0.2259880155 -0.09699654579 0.00038451597201040786 0.0001398890079888062
0.2313094735 -0.09699654579 0.0003830996532262635 0.00014268672932270514
0.2366309315 -0.09699654579 0.00038167704725397447 0.00014555209764487606
0.2419523895 -0.09699654579 0.0003802581786423052 0.00014841808333410713
0.2472738475 -0.09699654579 0.0003788458780030207 0.00015128446968662852
0.2525953054 -0.09699654579 0.00037741113736941003 0.00015412604577457853
0.2579167783 -0.09699654579 0.0003759475802305792 0.0001569687719060614
0.2632382214 -0.09699654579 0.00037412684729199575 0.00016039644721959964
0.2685596943 -0.09699654579 0.00037223319389433974 0.00016393257893676722
0.2738811374 -0.09699654579 0.00037033151820104767 0.0001674234031600636
0.2792026103 -0.09699654579 0.0003683803171824778 0.00017087632503773976
0.2845240533 -0.09699654579 0.000366445818984944 0.00017432853437740866
0.2898455262 -0.09699654579 0.0003645068169277287 0.00017781289871746005
0.2951669693 -0.09699654579 0.00036149078028611145 0.00018141443560050702
0.3004884422 -0.09699654579 0.0003583553988568262 0.0001849474190050292
0.3058098853 -0.09699654579 0.00035524194333042263 0.00018846572575943938
0.3111313581 -0.09699654579 0.00035213595634057005 0.0001919855920182454
0.3164528012 -0.09699654579 0.00034906197803185246 0.00019545757042335106
0.3217742741 -0.09699654579 0.0003459654735802625 0.00019884702017194158
0.3270957172 -0.09699654579 0.00034236359044866727 0.00020152917028863905
0.3324171901 -0.09699654579 0.0003387650706227164 0.00020421080564503574
0.3377386332 -0.09699654579 0.0003352080312859411 0.00020690891882528968
0.343060106 -0.09699654579 0.0003316674073515215 0.00020962164746837758
0.3483815491 -0.09699654579 0.00032810383250050646 0.0002123314496911314
0.353703022 -0.09699654579 0.0003247404542077764 0.0002150592225330062
0.3590244651 -0.09699654579 0.0003216848331992897 0.0002178190864682726
0.364345938 -0.09699654579 0.0003185864835670974 0.0002205929840570801
0.369667381 -0.09699654579 0.0003155075061658351 0.0002233698895538715
0.3749888539 -0.09699654579 0.0003124518348663112 0.0002261483754325167
0.380310297 -0.09699654579 0.0003093484910051749 0.00022892776378810248
0.3856317699 -0.09699654579 0.00030597987820729015 0.0002323272801699376
0.390953213 -0.09699654579 0.0003025318983157813 0.00023590541816768297
0.3962746859 -0.09699654579 0.0002991211143288665 0.00023952440047982407
0.4015961289 -0.09699654579 0.0002956591771845099 0.0002430731469208953
0.4069176018 -0.09699654579 0.0002921696966478968 0.0002465762226980999
0.4122390449 -0.09699654579 0.0002882703650984681 0.00025013905093460004
0.4175605178 -0.09699654579 0.00028386187488211066 0.00025377590312677126
0.4228819609 -0.09699654579 0.0002794584961516442 0.0002573480417554608
0.4282034338 -0.09699654579 0.00027507159863173977 0.00026089842032946597
0.4335248768 -0.09699654579 0.0002706689146233593 0.00026444515479106737
0.4388463497 -0.09699654579 0.0002661498569945351 0.0002679825035571582
0.4441677928 -0.09699654579 0.00026139059253485654 0.0002713436139906161
0.4494892657 -0.09699654579 0.0002566616974776212 0.0002747171223387327
0.4548107088 -0.09699654579 0.00025190886239819454 0.00027808480511827
0.4601321816 -0.09699654579 0.0002471806825783716 0.00028145439960023245
0.4654536247 -0.09699654579 0.00024249038225458415 0.00028487987270063044
0.4707750976 -0.09699654579 0.00023789351262587042 0.00028842210157657114
0.4760965407 -0.09699654579 0.0002333309326513017 0.00029194736728430586
0.4814180136 -0.09699654579 0.00022872560438909188 0.0002954893223487393
0.4867394567 -0.09699654579 0.00022409735147020015 0.00029903616889120335
0.4920609295 -0.09699654579 0.00021962864915981768 0.0003030418699164408
0.4973823726 -0.09699654579 0.0002152225310991965 0.00030717883991531744
0.5027038455 -0.09699654579 0.0002106824373686338 0.00031136011354930863
0.5080252886 -0.09699654579 0.00020623100094036362 0.00031550889099017995
0.5133467317 -0.09699654579 0.00020186407356199079 0.00032005526644348405
0.5186682343 -0.09699654579 0.00019753923228021467 0.0003251188676252151
0.5239896774 -0.09699654579 0.00019308791549838095 0.0003302011300009886
0.5293111205 -0.09699654579 0.0001886767909187465 0.00033528244986407563
0.5346325636 -0.09699654579 0.00018453469829695935 0.0003408694977391796
0.5399540663 -0.09699654579 0.0001803458634467707 0.00034724992645891
0.5452755094 -0.09699654579 0.00017608740266366056 0.000353642501935108
0.5505969524 -0.09699654579 0.0001718984955391093 0.0003600218772768693
0.5559183955 -0.09699654579 0.00016800494016973948 0.00036768146398779997
0.5612398982 -0.09699654579 0.0001639089077811577 0.00037585852767445694
0.5665613413 -0.09699654579 0.00015983359299220052 0.0003840272303106726
0.5718827844 -0.09699654579 0.00015612593636952116 0.0003930470636012157
0.5772042274 -0.09699654579 0.00015197515858345455 0.00040345793198866677
0.5825257301 -0.09699654579 0.00014784417583267812 0.00041386795114719974
0.5878471732 -0.09699654579 0.0001441943500579903 0.0004253579773251588
0.5931686163 -0.09699654579 0.0001398470673283011 0.0004384875409744957
0.5984900594 -0.09699654579 0.00013588828438104435 0.00045176860947969405
0.6038115621 -0.09699654579 0.00013141135123014087 0.0004671376142615809
0.6091330051 -0.09699654579 0.00012697738637645458 0.0004837357307835233
0.6144544482 -0.09699654579 0.00012197692251378559 0.000501174748781608
0.6197758913 -0.09699654579 0.00011666878540335169 0.0005214614305691739
0.625097394 -0.09699654579 0.00011080420096252604 0.0005422112011175615
0.6304188371 -0.09699654579 0.000104013522893013 0.0005661444194744254
0.6357402802 -0.09699654579 9.771592605194399e-05 0.0005913712588687526
0.6410617828 -0.09699654579 8.927739289789094e-05 0.0006183046475013101
0.6463832259 -0.09699654579 8.036504899441629e-05 0.0006485755813442005
0.651704669 -0.09699654579 7.032584572621562e-05 0.0006807465693722102
0.6570261121 -0.09699654579 5.735373233201075e-05 0.0007166020010156171
0.6623476148 -0.09699654579 4.274979673675196e-05 0.000754410215056135
0.6676690578 -0.09699654579 2.6393367837060236e-05 0.000795889378961298
0.6729905009 -0.09699654579 6.955570464517529e-06 0.0008402513091984382
0.678311944 -0.09699654579 -1.4771271829283183e-05 0.0008882888287885219
0.6836334467 -0.09699654579 -3.995223007846319e-05 0.0009390211300652283
0.6889548898 -0.09699654579 -7.058895470737087e-05 0.0009935262547589709
0.6942763329 -0.09699654579 -0.0001062241657858366 0.001052287533660742
0.6995977759 -0.09699654579 -0.00014657126888810158 0.0011152752455674357
0.7049192786 -0.09699654579 -0.00019339637520961002 0.0011803636754893802
0.7102407217 -0.09699654579 -0.0002479410510990661 0.0012487793514133452
0.7155621648 -0.09699654579 -0.0003121832955233632 0.0013206537294963355
0.7208836079 -0.09699654579 -0.00038449710264630403 0.0013963729501192625
0.7262051105 -0.09699654579 -0.0004670550315787983 0.001473205412267933
0.7315265536 -0.09699654579 -0.0005586376993169599 0.001549330482990107
0.7368479967 -0.09699654579 -0.0006635968657098188 0.0016279541703464997
0.7421694398 -0.09699654579 -0.0007826266960046629 0.0017040432409349334
0.7474909425 -0.09699654579 -0.0009139214346598878 0.001779675292266877
0.7528123856 -0.09699654579 -0.0010605888283442217 0.0018495569864547213
0.7581338286 -0.09699654579 -0.0012220827564370963 0.001913629202202241
-0.3008363545 -0.09367749095 0.00016763850063260084 -7.320351201155556e-05
-0.2955148816 -0.09367749095 0.00017059065875234594 -7.937810529617868e-05
-0.2901934385 -0.09367749095 0.00017385320156705788 -8.523799087312378e-05
-0.2848719656 -0.09367749095 0.00017726821784584126 -9.037778516936626e-05
-0.2795505226 -0.09367749095 0.00018290130829370119 -9.433545408038046e-05
-0.2742290497 -0.09367749095 0.0001891816026110908 -9.764115609747858e-05
-0.2689076066 -0.09367749095 0.0001960182971983275 -0.00010093444010054103
-0.2635861337 -0.09367749095 0.0002033800329011156 -0.00010350181576108646
-0.2582646906 -0.09367749095 0.00020938721643601576 -0.0001057030490752297