VARIABLES = X,Y,phix,phiy
ZONE I=200,J=200,F=POINT 
-0.3008363545 -0.1003156006 -0.0006644063553566869 0.0007097068765182105
-0.2955148816 -0.1003156006 -0.0006731827560329048 0.0006915004812188588
-0.2901934385 -0.1003156006 -0.0006788524117489344 0.000678455859540706
-0.2848719656 -0.1003156006 -0.0006835841763258528 0.0006648494250073506
-0.2795505226 -0.1003156006 -0.000687673644156807 0.0006506823566371888
-0.2742290497 -0.1003156006 -0.0006902861914652899 0.0006366072013740422
-0.2689076066 -0.1003156006 -0.0006925437103276349 0.0006209206544059121
-0.2635861337 -0.1003156006 -0.0006924119769410887 0.0005998568136759513
-0.2582646906 -0.1003156006 -0.0006900053839358322 0.0005756533414982014
-0.2529432178 -0.1003156006 -0.0006867203202678394 0.0005505112953712425
-0.2476217598 -0.1003156006 -0.0006811298302105714 0.0005229829112259396
-0.2423003018 -0.1003156006 -0.0006788666002426353 0.0004989590914917633
-0.2369788438 -0.1003156006 -0.0006787788534816877 0.0004811705642601287
-0.2316573858 -0.1003156006 -0.000678868281276069 0.0004650526653160399
-0.2263359278 -0.1003156006 -0.0006786519555683108 0.0004488103869684547
-0.2210144699 -0.1003156006 -0.0006710538116510374 0.0004277060228914076
-0.2156930119 -0.1003156006 -0.0006635033560680576 0.00040607919120259786
-0.2103715539 -0.1003156006 -0.0006563104896376385 0.0003822177806044118
-0.2050500959 -0.1003156006 -0.0006492707422539744 0.00035969244522330576
-0.1997286379 -0.1003156006 -0.0006426140824771264 0.0003372809426291952
-0.19440718 -0.1003156006 -0.0006350834380407475 0.00031263722256557176
-0.189085722 -0.1003156006 -0.0006173864963374771 0.0002935431422799015
-0.183764264 -0.1003156006 -0.000598850091961728 0.0002760594195815209
-0.178442806 -0.1003156006 -0.0005792651793424317 0.00025864803241277135
-0.173121348 -0.1003156006 -0.0005611616443441227 0.0002447532657068802
-0.16779989 -0.1003156006 -0.0005433973133064816 0.0002318140453348995
-0.1624784321 -0.1003156006 -0.0005264677928294574 0.00021935046344363402
-0.1571569741 -0.1003156006 -0.0005091050976979556 0.00020831146143153703
-0.1518355161 -0.1003156006 -0.0004905137438624023 0.00019826019739720063
-0.1465140581 -0.1003156006 -0.00047159102871577704 0.0001878436817882838
-0.1411926001 -0.1003156006 -0.00045202110382383575 0.00017837625977495768
-0.1358711421 -0.1003156006 -0.0004338592265160608 0.00017095470039080315
-0.1305496842 -0.1003156006 -0.00041568287870699005 0.00016353468052430033
-0.1252282262 -0.1003156006 -0.00039692736015706947 0.00015629233914313218
-0.1199067682 -0.1003156006 -0.0003780227160882586 0.0001510148753950974
-0.1145853102 -0.1003156006 -0.0003593834228531574 0.00014654562235333674
-0.1092638522 -0.1003156006 -0.00034049217636810476 0.00014221638857925552
-0.1039423943 -0.1003156006 -0.00032152010366123243 0.00013777168588544942
-0.09862093627 -0.1003156006 -0.0003037801277029339 0.0001366189452148986
-0.09329947084 -0.1003156006 -0.0002858445004543676 0.00013552695363524015
-0.08797801286 -0.1003156006 -0.000267877322140249 0.00013443648129659252
-0.08265655488 -0.1003156006 -0.00024967075323304436 0.00013356721018678222
-0.0773350969 -0.1003156006 -0.00023349745866731189 0.0001349889671953146
-0.07201363891 -0.1003156006 -0.00021731453476518504 0.00013629596387907647
-0.06669218093 -0.1003156006 -0.00020112304788887558 0.00013760419325181748
-0.06137072667 -0.1003156006 -0.00018485582489148887 0.0001391229634075363
-0.05604926869 -0.1003156006 -0.00016964058160396175 0.0001415191065219412
-0.05072781071 -0.1003156006 -0.00015494816402831865 0.00014412945113681663
-0.045406349 -0.1003156006 -0.00014029054060332093 0.00014663706289569183
-0.04008489102 -0.1003156006 -0.000125550143634979 0.00014924930620287505
-0.03476343304 -0.1003156006 -0.00011112780330609041 0.00015221068226480984
-0.02944197692 -0.1003156006 -9.797094299366902e-05 0.00015579292615486369
-0.02412051894 -0.1003156006 -8.478231355315678e-05 0.00015943007896430535
-0.01879905909 -0.1003156006 -7.157964485380047e-05 0.00016315415265664505
-0.01347760204 -0.1003156006 -5.839167048369928e-05 0.00016677498763232828
-0.00815614406 -0.1003156006 -4.646738057819346e-05 0.00017110199867339043
-0.00283468538 -0.1003156006 -3.5766770564084053e-05 0.00017587667973352814
0.002486772602 -0.1003156006 -2.5055387814196446e-05 0.00018084513319371044
0.007808230817 -0.1003156006 -1.4381169006595877e-05 0.0001858217597312077
0.0131296888 -0.1003156006 -3.668213936242377e-06 0.00019063064147530724
0.01845114678 -0.1003156006 6.0236579937128595e-06 0.00019554426673097926
0.02377260476 -0.1003156006 1.4806290968023527e-05 0.0002004390287549113
0.02909406275 -0.1003156006 2.356560419247451e-05 0.00020542413795387437
0.03441552073 -0.1003156006 3.232584616427551e-05 0.0002104084238177849
0.03973697871 -0.1003156006 4.109259375361461e-05 0.00021531644606775433
0.04505843669 -0.1003156006 4.9740205646214773e-05 0.0002200740935720306
0.05037989467 -0.1003156006 5.778501419250336e-05 0.00022442632716971087
0.05570135266 -0.1003156006 6.586489246184453e-05 0.00022878195451304836
0.06102281436 -0.1003156006 7.393507212932323e-05 0.0002331706381308717
0.06634426862 -0.1003156006 8.200045492777034e-05 0.00023751515110031755
0.0716657266 -0.1003156006 9.004757213774938e-05 0.00024185691610397174
0.07698718458 -0.1003156006 9.730665040286617e-05 0.0002463630091139151
0.08230864257 -0.1003156006 0.00010442732044126138 0.0002508212572182289
0.08763010055 -0.1003156006 0.00011156100301230884 0.00025530259426753097
0.09295155853 -0.1003156006 0.00011872277866162702 0.000259740500150609
0.09827301651 -0.1003156006 0.00012585131542553317 0.0002641670524895898
0.1035944745 -0.1003156006 0.00013272660385730037 0.00026852027426175557
0.1089159325 -0.1003156006 0.0001389106674623902 0.00027254285541942883
0.1142373979 -0.1003156006 0.00014512382429238312 0.0002765655590709377
0.1195588559 -0.1003156006 0.00015139276343487335 0.0002804859983920974
0.1248803139 -0.1003156006 0.0001576698423544325 0.00028442637367930604
0.1302017719 -0.1003156006 0.00016390406358535376 0.0002884152563334807
0.1355232298 -0.1003156006 0.00017000555051195567 0.00029191791614554586
0.1408446878 -0.1003156006 0.00017603476939276127 0.0002949556780980642
0.1461661458 -0.1003156006 0.00018206583186133386 0.00029804635479702184
0.1514876038 -0.1003156006 0.00018809561443675903 0.00030113853046202067
0.1568090618 -0.1003156006 0.00019414467239660152 0.0003042307705566836
0.1621305197 -0.1003156006 0.0002001520516855946 0.0003073339200082609
0.1674519777 -0.1003156006 0.0002067893909012166 0.00031057854572618917
0.1727734357 -0.1003156006 0.0002135841594175193 0.000313874229242705
0.1780948937 -0.1003156006 0.00022034899819715323 0.000317169663375672
0.1834163517 -0.1003156006 0.0002271548732857116 0.00032046526666652857
0.1887378097 -0.1003156006 0.00023393258536894915 0.00032375411841902523
0.1940592676 -0.1003156006 0.00024062214906999296 0.0003271099327317907
0.1993807256 -0.1003156006 0.00024758652338439745 0.00033117546532421906
0.2047021836 -0.1003156006 0.00025460425527660554 0.0003354157729835504
0.2100236416 -0.1003156006 0.0002615929706928744 0.00033966987311243404
0.2153450996 -0.1003156006 0.00026856232602875756 0.00034379606251746077
0.2206665576 -0.1003156006 0.0002755051382725463 0.00034802777251227766
0.2259880155 -0.1003156006 0.00028242168877362634 0.0003522519741129863
0.2313094735 -0.1003156006 0.00028916605177971874 0.000357122196488494
0.2366309315 -0.1003156006 0.0002957622139426353 0.00036208218785755455
0.2419523895 -0.1003156006 0.0003023380738193616 0.0003670659938805828
0.2472738475 -0.1003156006 0.00030891366966533253 0.00037205048822132477
0.2525953054 -0.1003156006 0.0003155415680606201 0.0003769980503778385
0.2579167783 -0.1003156006 0.0003221985532653725 0.00038191667846441095
0.2632382214 -0.1003156006 0.00032906269571637554 0.000387597167531749
0.2685596943 -0.1003156006 0.00033604830507258317 0.000393361246221364
0.2738811374 -0.1003156006 0.0003430220593550105 0.0003991539049495141
0.2792026103 -0.1003156006 0.00035001091465035816 0.0004049269074020515
0.2845240533 -0.1003156006 0.0003567992236810818 0.00041078300558375873
0.2898455262 -0.1003156006 0.0003635983369015139 0.0004166381493244491
0.2951669693 -0.1003156006 0.00037075507737830164 0.0004247355680818761
0.3004884422 -0.1003156006 0.00037792223136500267 0.0004331050662143192
0.3058098853 -0.1003156006 0.0003847402293779774 0.00044140460103836394
0.3111313581 -0.1003156006 0.0003915370528963505 0.0004497052036730644
0.3164528012 -0.1003156006 0.0003983549283170335 0.00045800503357577816
0.3217742741 -0.1003156006 0.0004052537534104705 0.00046637407728921114
0.3270957172 -0.1003156006 0.00041002990132591767 0.000477541387272765
0.3324171901 -0.1003156006 0.00041476760822380473 0.0004887218400300493
0.3377386332 -0.1003156006 0.00041949807192696506 0.0004999005619970892
0.343060106 -0.1003156006 0.00042425129577428424 0.0005110844471680567
0.3483815491 -0.1003156006 0.00042879667977587904 0.0005218968601425167
0.353703022 -0.1003156006 0.0004323433356280763 0.0005330644388271147
0.3590244651 -0.1003156006 0.00043365908111007187 0.0005449043409800141
0.364345938 -0.1003156006 0.0004350139053300764 0.0005567460927829559
0.369667381 -0.1003156006 0.0004363120290989158 0.0005682712901598201
0.3749888539 -0.1003156006 0.0004376336778500065 0.000579877106746431
0.380310297 -0.1003156006 0.0004389152277589194 0.0005915344426505204
0.3856317699 -0.1003156006 0.00043847861090911324 0.0006037042943032529
0.390953213 -0.1003156006 0.0004373638936835169 0.0006156525169970528
0.3962746859 -0.1003156006 0.0004361883611674049 0.0006275964360890828
0.4015961289 -0.1003156006 0.00043512284856501293 0.0006395538662668343
0.4069176018 -0.1003156006 0.0004340259751196089 0.0006514899361261965
0.4122390449 -0.1003156006 0.0004317543915223874 0.0006633547489951299
0.4175605178 -0.1003156006 0.0004278203964088134 0.0006756962690155424
0.4228819609 -0.1003156006 0.00042388163967580725 0.0006882276326781023
0.4282034338 -0.1003156006 0.0004199309988868494 0.0007007169995481032
0.4335248768 -0.1003156006 0.0004159295716643409 0.0007127677000625429
0.4388463497 -0.1003156006 0.00041108966215722066 0.0007247560330406833
0.4441677928 -0.1003156006 0.000403906541681984 0.0007364673236470788
0.4494892657 -0.1003156006 0.00039678913202968974 0.0007480769080908719
0.4548107088 -0.1003156006 0.00038973950557427407 0.0007594037094644188
0.4601321816 -0.1003156006 0.00038261254842069075 0.0007709351859893208
0.4654536247 -0.1003156006 0.0003746501660807036 0.0007821195657184982
0.4707750976 -0.1003156006 0.00036538878332613683 0.0007925614281333168
0.4760965407 -0.1003156006 0.00035615342672885814 0.0008028616816478911
0.4814180136 -0.1003156006 0.0003469267044601052 0.0008131597475871055
0.4867394567 -0.1003156006 0.0003377511682750773 0.0008234358403124064
0.4920609295 -0.1003156006 0.00032748383435099985 0.0008334226618013169
0.4973823726 -0.1003156006 0.00031690423137241023 0.0008432772233483934
0.5027038455 -0.1003156006 0.0003063138361693483 0.0008531002689962515
0.5080252886 -0.1003156006 0.0002957231783599891 0.000862924694083345
0.5133467317 -0.1003156006 0.00028453584261674676 0.0008726183448880935
0.5186682343 -0.1003156006 0.00027270202703734864 0.0008826751927168371
0.5239896774 -0.1003156006 0.000260870262755441 0.0008927910766152723
0.5293111205 -0.1003156006 0.0002490115153003536 0.0009027835419355277
0.5346325636 -0.1003156006 0.00023638349096999746 0.0009129414333116654
0.5399540663 -0.1003156006 0.00022304332879241704 0.000923719633392718
0.5452755094 -0.1003156006 0.00020974863147429578 0.0009346809572048705
0.5505969524 -0.1003156006 0.00019633305826460083 0.0009453280126107205
0.5559183955 -0.1003156006 0.0001815501037348517 0.0009568423291535495
0.5612398982 -0.1003156006 0.00016660148511633428 0.0009691889634400814
0.5665613413 -0.1003156006 0.0001516274344860454 0.000981431220680261
0.5718827844 -0.1003156006 0.00013544290141525927 0.000994029402406457
0.5772042274 -0.1003156006 0.00011847059040393544 0.001008362716590834
0.5825257301 -0.1003156006 0.00010154317386962371 0.0010228332966190183
0.5878471732 -0.1003156006 8.318335865285751e-05 0.0010378199501527164
0.5931686163 -0.1003156006 6.370561368808093e-05 0.001054793586081675
0.5984900594 -0.1003156006 4.441449271823581e-05 0.0010717872931917285
0.6038115621 -0.1003156006 2.2881928453073263e-05 0.0010913344820888107
0.6091330051 -0.1003156006 5.529285354628446e-07 0.00111118907836755
0.6144544482 -0.1003156006 -2.2879706910011365e-05 0.0011338946896729445
0.6197758913 -0.1003156006 -4.869489936579381e-05 0.001157799265246233
0.625097394 -0.1003156006 -7.614728910482099e-05 0.0011835588734747638
0.6304188371 -0.1003156006 -0.00010644584886189022 0.0012130713080352527
0.6357402802 -0.1003156006 -0.0001397935019254456 0.0012427426898164507
0.6410617828 -0.1003156006 -0.0001760858211204596 0.0012764267356056408
0.6463832259 -0.1003156006 -0.00021525882311352077 0.0013125349840263118
0.651704669 -0.1003156006 -0.00025671978597148465 0.0013513269938244833
0.6570261121 -0.1003156006 -0.0003057049863780351 0.0013926617883655982
0.6623476148 -0.1003156006 -0.00035932645718003063 0.0014381240313401603
0.6676690578 -0.1003156006 -0.0004176122643187368 0.0014864403384654854
0.6729905009 -0.1003156006 -0.00048674625949486324 0.0015391359069454695
0.678311944 -0.1003156006 -0.0005630639676865527 0.0015923913039287616
0.6836334467 -0.1003156006 -0.000647138161648398 0.0016493018189875882
0.6889548898 -0.1003156006 -0.0007431458874358809 0.0017109721542779835
0.6942763329 -0.1003156006 -0.0008522890338030892 0.001772750403780371
0.6995977759 -0.1003156006 -0.000973345417888709 0.001836132844544166
0.7049192786 -0.1003156006 -0.0011074142026769789 0.001899643499457029
0.7102407217 -0.1003156006 -0.0012592356499778374 0.001964249563535194
0.7155621648 -0.1003156006 -0.0014308140342520529 0.002024579159021856
0.7208836079 -0.1003156006 -0.0016202951760766497 0.002078837805793263
0.7262051105 -0.1003156006 -0.0018286534976044014 0.0021285508906529085
0.7315265536 -0.1003156006 -0.0020608879001795875 0.002168843831756808
0.7368479967 -0.1003156006 -0.0023231859590381564 0.002194958377084396
0.7421694398 -0.1003156006 -0.0026093252391320206 0.0022083668495990233
0.7474909425 -0.1003156006 -0.0029042639293694146 0.002199272100948334
0.7528123856 -0.1003156006 -0.0032371286241861886 0.002166252325530741
0.7581338286 -0.1003156006 -0.003594086080901264 0.00210797204484173
-0.3008363545 -0.09699654579 -0.0006740524990383626 0.0007158471101927834
-0.2955148816 -0.09699654579 -0.0006833095641947524 0.0006981262470063145
-0.2901934385 -0.09699654579 -0.0006917290258161144 0.0006797284639748579
-0.2848719656 -0.09699654579 -0.0006963201236388061 0.000665708653803635
-0.2795505226 -0.09699654579 -0.0007016061311181049 0.0006521574286946969
-0.2742290497 -0.09699654579 -0.0007050542510810173 0.0006372662009029852
-0.2689076066 -0.09699654579 -0.0007064434364372117 0.0006213542143572592
-0.2635861337 -0.09699654579 -0.0007087756287586215 0.0006011608693759256
-0.2582646906 -0.09699654579 -0.0007073093566547382 0.0005772696571067746
-0.2529432178 -0.09699654579 -0.0007029720061557833 0.0005503898722952436
-0.2476217598 -0.09699654579 -0.0006954641935793107 0.0005218613099231193
-0.2423003018 -0.09699654579 -0.0006903745576474871 0.0004940236327785477
-0.2369788438 -0.09699654579 -0.0006904846032798679 0.0004765913221877836
-0.2316573858 -0.09699654579 -0.0006907685204064128 0.0004616388003286732
-0.2263359278 -0.09699654579 -0.0006914466356330322 0.00044843830648486446
-0.2210144699 -0.09699654579 -0.0006855041151739039 0.00042734255283380113
-0.2156930119 -0.09699654579 -0.0006777837571173822 0.0004031631364250477
-0.2103715539 -0.09699654579 -0.000669926948612394 0.0003778283706540448
-0.2050500959 -0.09699654579 -0.0006627125205201133 0.0003529232367011332
-0.1997286379 -0.09699654579 -0.0006551292065550524 0.0003281835925276877
-0.19440718 -0.09699654579 -0.0006467385175351702 0.00030209393900292714
-0.189085722 -0.09699654579 -0.0006287540713847999 0.0002811683370591053
-0.183764264 -0.09699654579 -0.0006084573187601484 0.0002648295176331514
-0.178442806 -0.09699654579 -0.0005892373816903777 0.00024961853744324513
-0.173121348 -0.09699654579 -0.000571051275591224 0.00023580060700850372
-0.16779989 -0.09699654579 -0.0005542284274872825 0.00022312877385136562
-0.1624784321 -0.09699654579 -0.0005370612733254424 0.00021019879690767503
-0.1571569741 -0.09699654579 -0.0005193219160941474 0.0001983189702992388
-0.1518355161 -0.09699654579 -0.000499634469620852 0.00018737267733866852
-0.1465140581 -0.09699654579 -0.00047890105835449604 0.0001766583524128728
-0.1411926001 -0.09699654579 -0.00045853150230288053 0.00016629170636813613
-0.1358711421 -0.09699654579 -0.0004396752231752161 0.00015908316113671546
-0.1305496842 -0.09699654579 -0.00042060072396369236 0.0001517436219478113
-0.1252282262 -0.09699654579 -0.0004013302236618814 0.0001443605344395907
-0.1199067682 -0.09699654579 -0.0003814982953981571 0.0001393529666111724
-0.1145853102 -0.09699654579 -0.0003624574581249644 0.0001347629773132731
-0.1092638522 -0.09699654579 -0.0003431807016794702 0.00013039601347504632
-0.1039423943 -0.09699654579 -0.0003232473206016436 0.0001260970984588151
-0.09862093627 -0.09699654579 -0.00030494259414051505 0.0001250852264790062
-0.09329947084 -0.09699654579 -0.00028649947062492733 0.00012425272063865415
-0.08797801286 -0.09699654579 -0.0002678811169115118 0.0001235618183652902
-0.08265655488 -0.09699654579 -0.00024928448215419364 0.00012274257983125317
-0.0773350969 -0.09699654579 -0.00023298981777688388 0.00012432702729602542
-0.07201363891 -0.09699654579 -0.0002166190203746735 0.00012597251241499327
-0.06669218093 -0.09699654579 -0.0002002116431064761 0.00012761609818290958
-0.06137072667 -0.09699654579 -0.00018379797272998632 0.00012931795241246866
-0.05604926869 -0.09699654579 -0.0001683959919535273 0.0001320197158003077
-0.05072781071 -0.09699654579 -0.0001535380885585459 0.0001347356224538651
-0.045406349 -0.09699654579 -0.00013867230055815373 0.00013745171660620108
-0.04008489102 -0.09699654579 -0.00012377656575426286 0.0001402764193234426
-0.03476343304 -0.09699654579 -0.00010920217868668307 0.00014351964160254805
-0.02944197692 -0.09699654579 -9.59492678117192e-05 0.00014742677307151144
-0.02412051894 -0.09699654579 -8.270766666015413e-05 0.00015132003008086473
-0.01879905909 -0.09699654579 -6.944538003468186e-05 0.0001552207132446398
-0.01347760204 -0.09699654579 -5.6184352317225425e-05 0.0001591831006222163
-0.00815614406 -0.09699654579 -4.430395427666661e-05 0.00016386449937381097
-0.00283468538 -0.09699654579 -3.3719341253621505e-05 0.00016899271334106428
0.002486772602 -0.09699654579 -2.3166282864658476e-05 0.0001741815521203198
0.007808230817 -0.09699654579 -1.2638762084203409e-05 0.00017939304799058958
0.0131296888 -0.09699654579 -2.0521837492183336e-06 0.00018454651122089814
0.01845114678 -0.09699654579 7.526618659774958e-06 0.00018971416553021503
0.02377260476 -0.09699654579 1.6197639441678424e-05 0.00019477998495821098
0.02909406275 -0.09699654579 2.4830011979568797e-05 0.00019987604260586817
0.03441552073 -0.09699654579 3.346820603200894e-05 0.00020498648520776892
0.03973697871 -0.09699654579 4.2146997996432646e-05 0.00021004770002424933
0.04505843669 -0.09699654579 5.072355755699732e-05 0.00021493339394618857
0.05037989467 -0.09699654579 5.879817321322845e-05 0.000219347720753206
0.05570135266 -0.09699654579 6.688105461722097e-05 0.00022373970969918804
0.06102281436 -0.09699654579 7.495489904838968e-05 0.0002281509394485661
0.06634426862 -0.09699654579 8.301373942531537e-05 0.00023255960886705117
0.0716657266 -0.09699654579 9.109467901902e-05 0.0002369683604905547
0.07698718458 -0.09699654579 9.83036196924774e-05 0.00024165122370950587
0.08230864257 -0.09699654579 0.00010539914127733691 0.0002462904467881523
0.08763010055 -0.09699654579 0.00011255777076375068 0.00025087550243958165
0.09295155853 -0.09699654579 0.00011970887272861796 0.0002554495362217515
0.09827301651 -0.09699654579 0.00012682775512024347 0.00026005474863191196
0.1035944745 -0.09699654579 0.00013367650584244738 0.0002645568711098477
0.1089159325 -0.09699654579 0.00013979322719310415 0.00026870143077595027
0.1142373979 -0.09699654579 0.00014603589353688707 0.0002727843257741522
0.1195588559 -0.09699654579 0.00015227480780568127 0.00027685995656488607
0.1248803139 -0.09699654579 0.00015852591925444545 0.0002809370140070621
0.1302017719 -0.09699654579 0.00016476388388814056 0.0002850053532799418
0.1355232298 -0.09699654579 0.00017087108298976806 0.00028849847064182216
0.1408446878 -0.09699654579 0.0001769987936329314 0.0002914956172962066
0.1461661458 -0.09699654579 0.00018306818858592898 0.00029453712275619945
0.1514876038 -0.09699654579 0.00018897791706922143 0.0002975599323839689
0.1568090618 -0.09699654579 0.00019490534504931696 0.0003005815553950761
0.1621305197 -0.09699654579 0.0002009149277884324 0.00030360113851695374
0.1674519777 -0.09699654579 0.00020766977503820653 0.0003067783371678701
0.1727734357 -0.09699654579 0.00021470900929263455 0.00030987496253275914
0.1780948937 -0.09699654579 0.00022170569153730753 0.000312992340323218
0.1834163517 -0.09699654579 0.00022876094298295734 0.00031608114602291583
0.1887378097 -0.09699654579 0.00023568945792346065 0.0003193031548167936
0.1940592676 -0.09699654579 0.00024265558943171802 0.0003225243487987946
0.1993807256 -0.09699654579 0.00024997877988690683 0.00032659855355084426
0.2047021836 -0.09699654579 0.0002573710345849486 0.00033085635523634347
0.2100236416 -0.09699654579 0.00026467127535364626 0.00033508825436186077
0.2153450996 -0.09699654579 0.0002718933390501776 0.0003393587747940369
0.2206665576 -0.09699654579 0.0002791531575110667 0.00034362829326094787
0.2259880155 -0.09699654579 0.0002864789310359264 0.0003478417687412416
0.2313094735 -0.09699654579 0.0002933391366976124 0.0003527591356200191
0.2366309315 -0.09699654579 0.00029999065357189125 0.00035776893973443876
0.2419523895 -0.09699654579 0.00030661297798047584 0.00036277871303744025
0.2472738475 -0.09699654579 0.00031327447355803187 0.00036778926557324464
0.2525953054 -0.09699654579 0.0003199014097011988 0.00037275819912139895
0.2579167783 -0.09699654579 0.00032648489508478205 0.00037774747370484483
0.2632382214 -0.09699654579 0.00033352833563949047 0.00038338206973806584
0.2685596943 -0.09699654579 0.0003406261516000782 0.0003890959338834207
0.2738811374 -0.09699654579 0.00034765018944594783 0.0003948320991133338
0.2792026103 -0.09699654579 0.0003545496126878773 0.00040065528232292527
0.2845240533 -0.09699654579 0.0003615282215559177 0.000406435189484976
0.2898455262 -0.09699654579 0.0003685182998061021 0.0004122172090987666
0.2951669693 -0.09699654579 0.0003759661718616709 0.00042051509969989536
0.3004884422 -0.09699654579 0.00038319736549319707 0.0004290125167057442
0.3058098853 -0.09699654579 0.00039052240530449946 0.0004374647745520842
0.3111313581 -0.09699654579 0.0003978515519302982 0.0004459182227675165
0.3164528012 -0.09699654579 0.00040508304610123593 0.0004543033721618441
0.3217742741 -0.09699654579 0.0004119479793978832 0.0004628659300583611
0.3270957172 -0.09699654579 0.00041671062071762003 0.00047439676471993666
0.3324171901 -0.09699654579 0.00042146886081030957 0.00048592770339329135
0.3377386332 -0.09699654579 0.00042624061162925564 0.0004973123233539849
0.343060106 -0.09699654579 0.00043089572416433336 0.0005085699205317109
0.3483815491 -0.09699654579 0.0004355301009079971 0.000519880135812561
0.353703022 -0.09699654579 0.0004389884637504514 0.0005315581367509904
0.3590244651 -0.09699654579 0.00044025631597929496 0.0005436972734487222
0.364345938 -0.09699654579 0.00044142022069205506 0.0005556669431703905
0.369667381 -0.09699654579 0.00044266768151659874 0.0005676649551361791
0.3749888539 -0.09699654579 0.00044404058494285737 0.0005796489050986783
0.380310297 -0.09699654579 0.00044543485261831566 0.000591458713905159
0.3856317699 -0.09699654579 0.0004448981314987811 0.0006036449431092598
0.390953213 -0.09699654579 0.0004439498104301538 0.000615958317350393
0.3962746859 -0.09699654579 0.0004429691759850203 0.0006284093457253212
0.4015961289 -0.09699654579 0.0004419584610130139 0.0006406308320324343
0.4069176018 -0.09699654579 0.00044085465909738736 0.0006527360838585426
0.4122390449 -0.09699654579 0.00043853751893173555 0.0006652538179616153
0.4175605178 -0.09699654579 0.0004345682894958751 0.0006782738706337916
0.4228819609 -0.09699654579 0.0004306163055580762 0.0006908973546614824
0.4282034338 -0.09699654579 0.00042656255277438926 0.0007034343189534269
0.4335248768 -0.09699654579 0.00042260282146481143 0.0007159502615391471
0.4388463497 -0.09699654579 0.0004175803144992244 0.000728607603368117
0.4441677928 -0.09699654579 0.0004103075142070277 0.0007405364738122185
0.4494892657 -0.09699654579 0.00040309736191028326 0.0007525110509216304
0.4548107088 -0.09699654579 0.0003958394908655898 0.0007644576230288433
0.4601321816 -0.09699654579 0.00038865723026617856 0.0007762998985996054
0.4654536247 -0.09699654579 0.0003806337144645682 0.0007874594919766709
0.4707750976 -0.09699654579 0.0003713577238008005 0.0007980235301595583
0.4760965407 -0.09699654579 0.0003619267790276111 0.0008087516142556144
0.4814180136 -0.09699654579 0.00035261590247824407 0.0008193295650372075
0.4867394567 -0.09699654579 0.0003433165778371432 0.0008297893806538532
0.4920609295 -0.09699654579 0.0003330379318820183 0.000839940459250298
0.4973823726 -0.09699654579 0.0003225043968073397 0.0008499871398511954
0.5027038455 -0.09699654579 0.0003119857162011387 0.0008598629646413369
0.5080252886 -0.09699654579 0.0003014216797899482 0.0008698375664093417
0.5133467317 -0.09699654579 0.0002903697429016999 0.0008799953851164654
0.5186682343 -0.09699654579 0.0002786482322628506 0.0008902696398516571
0.5239896774 -0.09699654579 0.00026680509793206134 0.0009003940376621864
0.5293111205 -0.09699654579 0.00025503886424936225 0.0009105674474633829
0.5346325636 -0.09699654579 0.00024276899296725126 0.0009212776492667875
0.5399540663 -0.09699654579 0.0002296061979196536 0.000932299662772516
0.5452755094 -0.09699654579 0.00021634162014991189 0.0009432670820807213
0.5505969524 -0.09699654579 0.0002031559656328583 0.0009542857688952849
0.5559183955 -0.09699654579 0.00018902738847160087 0.0009665014122859883
0.5612398982 -0.09699654579 0.00017413424710982923 0.0009788831528792024
0.5665613413 -0.09699654579 0.00015933976243563848 0.000991251544704651
0.5718827844 -0.09699654579 0.00014417325399179528 0.001004766405975418
0.5772042274 -0.09699654579 0.00012744976214284741 0.0010192397467647548
0.5825257301 -0.09699654579 0.00011072335391476858 0.0010337136777853427
0.5878471732 -0.09699654579 9.37302822310649e-05 0.001049686375994119
0.5931686163 -0.09699654579 7.483053601091121e-05 0.0010669622290097839
0.5984900594 -0.09699654579 5.628486067264882e-05 0.001084675096906504
0.6038115621 -0.09699654579 3.568175511819427e-05 0.0011046118510437883
0.6091330051 -0.09699654579 1.4529685173732827e-05 0.001126191861397808
0.6144544482 -0.09699654579 -8.153311738136808e-06 0.0011484883644655793
0.6197758913 -0.09699654579 -3.3097592606196935e-05 0.0011746188726155392
0.625097394 -0.09699654579 -5.9105348392007915e-05 0.001201066276218682
0.6304188371 -0.09699654579 -8.86695438997848e-05 0.0012314740361061471
0.6357402802 -0.09699654579 -0.00011832612886449303 0.0012643293977506974
0.6410617828 -0.09699654579 -0.00015244701177216592 0.001298438498281601
0.6463832259 -0.09699654579 -0.00018966749109477796 0.0013375165788626904
0.651704669 -0.09699654579 -0.0002299139483481152 0.0013790849425013216
0.6570261121 -0.09699654579 -0.0002777743432176115 0.001424743947743445
0.6623476148 -0.09699654579 -0.0003297967476237679 0.0014726613751726446
0.6676690578 -0.09699654579 -0.00038751454306765025 0.0015255135376571474
0.6729905009 -0.09699654579 -0.0004529753794297666 0.0015815667432819778
0.678311944 -0.09699654579 -0.0005253150502912151 0.001642619871506013
0.6836334467 -0.09699654579 -0.0006060523678782847 0.001705995502291392
0.6889548898 -0.09699654579 -0.0007000247194552249 0.00177213907599822
0.6942763329 -0.09699654579 -0.0008070103753785149 0.0018423821961831806
0.6995977759 -0.09699654579 -0.0009267692341373734 0.0019169644539425233
0.7049192786 -0.09699654579 -0.001060948246341167 0.001990196399646422
0.7102407217 -0.09699654579 -0.001213372223702723 0.002063295749770109
0.7155621648 -0.09699654579 -0.00138851060430588 0.0021345746726916816
0.7208836079 -0.09699654579 -0.0015839057769242253 0.0022062043132552492
0.7262051105 -0.09699654579 -0.0018015022725523615 0.002270402678980792
0.7315265536 -0.09699654579 -0.0020374203647626943 0.002323943199493652
0.7368479967 -0.09699654579 -0.002303788243194764 0.0023694405171104044
0.7421694398 -0.09699654579 -0.002597494110215299 0.002394697656325062
0.7474909425 -0.09699654579 -0.0029171666785341786 0.0024056565643563003
0.7528123856 -0.09699654579 -0.0032635732059470225 0.0023871484313917083
0.7581338286 -0.09699654579 -0.003635516085219645 0.002338940424679584
-0.3008363545 -0.09367749095 -0.0006845307787635434 0.0007228656587324451
-0.2955148816 -0.09367749095 -0.0006941188225475625 0.000704326912393422
-0.2901934385 -0.09367749095 -0.0007023298845064885 0.0006842916395201194
-0.2848719656 -0.09367749095 -0.0007113354207480114 0.0006674620201749554
-0.2795505226 -0.09367749095 -0.0007154903603546317 0.0006534749713255095
-0.2742290497 -0.09367749095 -0.000720517118677781 0.0006383863376385815
-0.2689076066 -0.09367749095 -0.0007234561148582552 0.0006221158486141625
-0.2635861337 -0.09367749095 -0.0007250438997178959 0.0006034194525992482
-0.2582646906 -0.09367749095 -0.0007234980954971118 0.0005772400734310412
-0.2529432178 -0.09367749095 -0.00072048867440705 0.0005505848601150865
-0.2476217598 -0.09367749095 -0.0007133155776411577 0.0005214383119816343