VARIABLES = X,Y,phix,phiy
ZONE I=200,J=200,F=POINT 
-0.3008363545 -0.1003156006 0.0007820078305805667 -0.0008786887215166101
-0.2955148816 -0.1003156006 0.0007966522496743934 -0.0008810704739766911
-0.2901934385 -0.1003156006 0.0008130449841930737 -0.0008760422751058416
-0.2848719656 -0.1003156006 0.0008300172501509044 -0.0008704362291445759
-0.2795505226 -0.1003156006 0.0008488572067837793 -0.0008609323858913491
-0.2742290497 -0.1003156006 0.0008689260694779281 -0.0008470689183682776
-0.2689076066 -0.1003156006 0.0008903050729646556 -0.0008310134192669455
-0.2635861337 -0.1003156006 0.0009083545845165919 -0.000813939501105679
-0.2582646906 -0.1003156006 0.0009255057716000433 -0.0007953382774981581
-0.2529432178 -0.1003156006 0.0009419896701337413 -0.0007751568660467719
-0.2476217598 -0.1003156006 0.0009574653367763194 -0.0007534319819413489
-0.2423003018 -0.1003156006 0.0009680537579874053 -0.0007320212871548562
-0.2369788438 -0.1003156006 0.0009769771471920883 -0.0007115801206152344
-0.2316573858 -0.1003156006 0.0009858871390520665 -0.0006906745990337054
-0.2263359278 -0.1003156006 0.0009927616018047863 -0.0006691670492283272
-0.2210144699 -0.1003156006 0.000999997043969825 -0.0006490428347026339
-0.2156930119 -0.1003156006 0.0010079962031659016 -0.000628046610756431
-0.2103715539 -0.1003156006 0.0010167192896547656 -0.0006048663893111787
-0.2050500959 -0.1003156006 0.0010141328825497193 -0.0005809653025373537
-0.1997286379 -0.1003156006 0.0010118208741608237 -0.0005566205105986447
-0.19440718 -0.1003156006 0.0010105149975948005 -0.0005308928348678499
-0.189085722 -0.1003156006 0.001005097277205787 -0.0005076762630829313
-0.183764264 -0.1003156006 0.0009988660369558906 -0.0004832937176820663
-0.178442806 -0.1003156006 0.0009925729091912782 -0.0004582632773953742
-0.173121348 -0.1003156006 0.0009812312032451832 -0.0004373756952817424
-0.16779989 -0.1003156006 0.000969404939659346 -0.00041821589736878214
-0.1624784321 -0.1003156006 0.0009562811723098721 -0.00039884941639889356
-0.1571569741 -0.1003156006 0.0009417099404335158 -0.0003822960166559787
-0.1518355161 -0.1003156006 0.00092598468486339 -0.0003675250815581443
-0.1465140581 -0.1003156006 0.0009099552935488679 -0.00035266712023283246
-0.1411926001 -0.1003156006 0.0008931479433951974 -0.00033928710880468436
-0.1358711421 -0.1003156006 0.0008756596412834393 -0.00032815254209424684
-0.1305496842 -0.1003156006 0.0008581514841291421 -0.00031701754086319175
-0.1252282262 -0.1003156006 0.0008397148539226579 -0.00030612880237389315
-0.1199067682 -0.1003156006 0.0008227056887095504 -0.00029944207635698104
-0.1145853102 -0.1003156006 0.0008062961091486781 -0.0002938369313864841
-0.1092638522 -0.1003156006 0.0007894593653110839 -0.00028849149001917664
-0.1039423943 -0.1003156006 0.0007727295143686486 -0.0002832149187280444
-0.09862093627 -0.1003156006 0.0007585349873103273 -0.00028096385103812415
-0.09329947084 -0.1003156006 0.0007439191440718867 -0.00027884995863296745
-0.08797801286 -0.1003156006 0.0007293365947574177 -0.0002767346761076011
-0.08265655488 -0.1003156006 0.0007146900868002914 -0.0002748214834531999
-0.0773350969 -0.1003156006 0.000701048202919369 -0.0002735893330907421
-0.07201363891 -0.1003156006 0.0006874180370093254 -0.00027230770250930204
-0.06669218093 -0.1003156006 0.0006737668204421403 -0.0002710257977818856
-0.06137072667 -0.1003156006 0.0006598392993273422 -0.0002699304929652654
-0.05604926869 -0.1003156006 0.0006475531081524454 -0.0002700356728219369
-0.05072781071 -0.1003156006 0.0006357980744120579 -0.00027030994305980114
-0.045406349 -0.1003156006 0.00062406605313199 -0.0002704919801469915
-0.04008489102 -0.1003156006 0.0006122170163000429 -0.0002708284416651343
-0.03476343304 -0.1003156006 0.0006007697896777187 -0.0002712882874904729
-0.02944197692 -0.1003156006 0.0005903287710394151 -0.00027174638491545
-0.02412051894 -0.1003156006 0.0005798762817369132 -0.0002722326878927961
-0.01879905909 -0.1003156006 0.0005694077075717882 -0.00027276050696459984
-0.01347760204 -0.1003156006 0.0005589375551977846 -0.00027324139087217476
-0.00815614406 -0.1003156006 0.0005490664636612709 -0.0002738986987646334
-0.00283468538 -0.1003156006 0.0005396809429407715 -0.0002745565666069818
0.002486772602 -0.1003156006 0.0005302712014458778 -0.00027530161673663104
0.007808230817 -0.1003156006 0.0005208588944833097 -0.00027604991362726396
0.0131296888 -0.1003156006 0.0005114833774456923 -0.00027672240709737927
0.01845114678 -0.1003156006 0.0005023829839422904 -0.0002773175053673492
0.02377260476 -0.1003156006 0.000493508531791725 -0.0002777482735002109
0.02909406275 -0.1003156006 0.00048462645294199364 -0.00027821126182739185
0.03441552073 -0.1003156006 0.00047577068931666845 -0.000278675266003315
0.03973697871 -0.1003156006 0.00046688604957356386 -0.00027910917062209565
0.04505843669 -0.1003156006 0.0004583359841307418 -0.0002793596275618509
0.05037989467 -0.1003156006 0.00045030157039524456 -0.0002790487336187289
0.05570135266 -0.1003156006 0.000442309792321517 -0.000278754203645269
0.06102281436 -0.1003156006 0.0004343251214964572 -0.0002784693762987629
0.06634426862 -0.1003156006 0.00042631730340251725 -0.00027816226758401824
0.0716657266 -0.1003156006 0.00041829084664008685 -0.00027784776007917393
0.07698718458 -0.1003156006 0.00041064126018432575 -0.00027654830934130425
0.08230864257 -0.1003156006 0.00040300493719996693 -0.0002751191864327914
0.08763010055 -0.1003156006 0.0003954426031818082 -0.0002736819152667603
0.09295155853 -0.1003156006 0.0003878156672597534 -0.00027224729402765377
0.09827301651 -0.1003156006 0.00038018479686102486 -0.0002708183437454515
0.1035944745 -0.1003156006 0.0003720854814721237 -0.0002690535527533298
0.1089159325 -0.1003156006 0.0003631307144360658 -0.0002664007010887784
0.1142373979 -0.1003156006 0.00035417045740667466 -0.00026374774586397176
0.1195588559 -0.1003156006 0.00034511011732734736 -0.0002611291496738175
0.1248803139 -0.1003156006 0.00033606416183053477 -0.000258497686957594
0.1302017719 -0.1003156006 0.00032705881456749714 -0.00025585838982699466
0.1355232298 -0.1003156006 0.0003171751601717353 -0.00025251862252836054
0.1408446878 -0.1003156006 0.00030660123135624014 -0.0002486453118254342
0.1461661458 -0.1003156006 0.00029596383768315396 -0.0002448956506121035
0.1514876038 -0.1003156006 0.0002853060802650901 -0.00024114589815440616
0.1568090618 -0.1003156006 0.00027464975436850816 -0.0002373963970766079
0.1621305197 -0.1003156006 0.00026400718589346834 -0.0002336660958667341
0.1674519777 -0.1003156006 0.00025125545071192837 -0.000229579821439865
0.1727734357 -0.1003156006 0.00023768404179932612 -0.0002252209732209674
0.1780948937 -0.1003156006 0.0002241155550608091 -0.00022086244387971974
0.1834163517 -0.1003156006 0.00021053496688082653 -0.00021650420705720844
0.1887378097 -0.1003156006 0.00019695516734230962 -0.00021225058459885994
0.1940592676 -0.1003156006 0.00018338628208834903 -0.00020821454306018232
0.1993807256 -0.1003156006 0.00016686179822270704 -0.00020488425231639812
0.2047021836 -0.1003156006 0.000149376653818296 -0.00020174290238100416
0.2100236416 -0.1003156006 0.00013189817658187028 -0.00019860292433577023
0.2153450996 -0.1003156006 0.00011450919155049923 -0.00019572760734310393
0.2206665576 -0.1003156006 9.713118647262222e-05 -0.00019277019246003956
0.2259880155 -0.1003156006 7.974997479068827e-05 -0.000189814850768788
0.2313094735 -0.1003156006 5.9674397063509904e-05 -0.00018874606008013347
0.2366309315 -0.1003156006 3.894106401120144e-05 -0.00018838110111331284
0.2419523895 -0.1003156006 1.834944237315498e-05 -0.0001881120609991114
0.2472738475 -0.1003156006 -2.283018330025237e-06 -0.0001878434182000908
0.2525953054 -0.1003156006 -2.2981857070180376e-05 -0.00018753072636771225
0.2579167783 -0.1003156006 -4.355290380382523e-05 -0.00018737005589312147
0.2632382214 -0.1003156006 -6.625430024661845e-05 -0.00019036543162941657
0.2685596943 -0.1003156006 -8.964061829592542e-05 -0.00019405719979401957
0.2738811374 -0.1003156006 -0.00011320228277536023 -0.00019768893963478744
0.2792026103 -0.1003156006 -0.00013660459623670852 -0.00020137416956403286
0.2845240533 -0.1003156006 -0.0001595898358090055 -0.00020524146165945854
0.2898455262 -0.1003156006 -0.00018257718076866334 -0.00020910936890773904
0.2951669693 -0.1003156006 -0.00020671744322574217 -0.00021763024378410395
0.3004884422 -0.1003156006 -0.000231049768135657 -0.00022686138626852752
0.3058098853 -0.1003156006 -0.00025473608934755993 -0.00023607544696818496
0.3111313581 -0.1003156006 -0.00027842543660723155 -0.0002452868143826386
0.3164528012 -0.1003156006 -0.0003021147496481538 -0.0002544995709588427
0.3217742741 -0.1003156006 -0.0003258605905964588 -0.00026384314561593016
0.3270957172 -0.1003156006 -0.00034812762988512404 -0.00027823396640137957
0.3324171901 -0.1003156006 -0.0003703970544505536 -0.00029262045111750604
0.3377386332 -0.1003156006 -0.0003926716979990847 -0.00030700502513379154
0.343060106 -0.1003156006 -0.00041499176855273976 -0.0003214033305469623
0.3483815491 -0.1003156006 -0.0004366993928568077 -0.00033553167852127315
0.353703022 -0.1003156006 -0.0004574765710949497 -0.00035092464108923906
0.3590244651 -0.1003156006 -0.0004762564458423448 -0.0003691472982379569
0.364345938 -0.1003156006 -0.0004950376158992091 -0.0003873737145837605
0.369667381 -0.1003156006 -0.0005134311499786435 -0.00040516808452718166
0.3749888539 -0.1003156006 -0.000531911147973598 -0.0004230730890466358
0.380310297 -0.1003156006 -0.0005504294810019319 -0.0004410330013468435
0.3856317699 -0.1003156006 -0.0005656696956614276 -0.00046112664371875177
0.390953213 -0.1003156006 -0.0005796289323665607 -0.0004812874010460216
0.3962746859 -0.1003156006 -0.0005935672896699166 -0.0005013832181855895
0.4015961289 -0.1003156006 -0.0006074987856055696 -0.0005214875007030856
0.4069176018 -0.1003156006 -0.0006214719214910223 -0.0005415739239188893
0.4122390449 -0.1003156006 -0.0006334334924445514 -0.0005612773949085956
0.4175605178 -0.1003156006 -0.0006425402524553373 -0.0005813913476075844
0.4228819609 -0.1003156006 -0.0006516139813965265 -0.0006017021257680436
0.4282034338 -0.1003156006 -0.000660734632040473 -0.0006219951229943038
0.4335248768 -0.1003156006 -0.0006698314048709695 -0.0006416545555576357
0.4388463497 -0.1003156006 -0.0006778535655289479 -0.0006609327855319118
0.4441677928 -0.1003156006 -0.000682778816141806 -0.0006791306231819879
0.4494892657 -0.1003156006 -0.0006878103561803894 -0.0006972516503736584
0.4548107088 -0.1003156006 -0.0006930421555092302 -0.0007150137190882571
0.4601321816 -0.1003156006 -0.0006981152657383553 -0.0007329709875760751
0.4654536247 -0.1003156006 -0.0007020133947903056 -0.0007499285795032496
0.4707750976 -0.1003156006 -0.0007042284120677269 -0.000765130494743245
0.4760965407 -0.1003156006 -0.0007067331817618369 -0.0007800491208453375
0.4814180136 -0.1003156006 -0.0007092407783538578 -0.000794967125431668
0.4867394567 -0.1003156006 -0.000711771644035878 -0.0008099015437050575
0.4920609295 -0.1003156006 -0.000712577281262228 -0.0008224510484179203
0.4973823726 -0.1003156006 -0.0007131210723173079 -0.0008341779364060013
0.5027038455 -0.1003156006 -0.0007136708138979808 -0.0008458988123858553
0.5080252886 -0.1003156006 -0.0007142154996926458 -0.0008576322452862871
0.5133467317 -0.1003156006 -0.0007146970256151626 -0.0008674678720356286
0.5186682343 -0.1003156006 -0.0007138545236084987 -0.0008754034473233858
0.5239896774 -0.1003156006 -0.0007129185622753899 -0.0008833474397180261
0.5293111205 -0.1003156006 -0.0007122499004310573 -0.0008912545987479621
0.5346325636 -0.1003156006 -0.0007118780918301079 -0.000897171335368591
0.5399540663 -0.1003156006 -0.0007105639619554738 -0.0009007258980312636
0.5452755094 -0.1003156006 -0.0007089206688393468 -0.0009042706445609026
0.5505969524 -0.1003156006 -0.0007079545470774182 -0.000907832751323663
0.5559183955 -0.1003156006 -0.0007074406415993051 -0.0009078791526133317
0.5612398982 -0.1003156006 -0.0007057330426147826 -0.000906524175034663
0.5665613413 -0.1003156006 -0.0007042390400660933 -0.0009052191499736137
0.5718827844 -0.1003156006 -0.000704123239346961 -0.0009021452984981311
0.5772042274 -0.1003156006 -0.0007033831206569511 -0.0008957101244169885
0.5825257301 -0.1003156006 -0.0007025076762907147 -0.0008892105271030421
0.5878471732 -0.1003156006 -0.0007031444985216092 -0.0008808340427825878
0.5931686163 -0.1003156006 -0.0007040741468192561 -0.0008691122658076376
0.5984900594 -0.1003156006 -0.0007046319069668725 -0.0008576762688551077
0.6038115621 -0.1003156006 -0.0007064460721657435 -0.0008418808535849636
0.6091330051 -0.1003156006 -0.0007091292673386952 -0.0008254297747764613
0.6144544482 -0.1003156006 -0.0007121049200100421 -0.0008055850429021405
0.6197758913 -0.1003156006 -0.0007171648082572034 -0.0007834751671556447
0.625097394 -0.1003156006 -0.0007232806216580776 -0.0007592858834786239
0.6304188371 -0.1003156006 -0.0007310568721225958 -0.0007307772372328355
0.6357402802 -0.1003156006 -0.0007414298482232075 -0.0007011935024123509
0.6410617828 -0.1003156006 -0.0007528975998703326 -0.0006678098032582479
0.6463832259 -0.1003156006 -0.0007663168168792351 -0.0006315234541779777
0.651704669 -0.1003156006 -0.0007809374066604055 -0.0005929271521886449
0.6570261121 -0.1003156006 -0.0008004884042003795 -0.0005506714003052306
0.6623476148 -0.1003156006 -0.0008221710678061738 -0.0005049112717676954
0.6676690578 -0.1003156006 -0.000846314405042098 -0.0004559270916145856
0.6729905009 -0.1003156006 -0.0008760552353864102 -0.00040195509373326584
0.678311944 -0.1003156006 -0.0009098555504351825 -0.00034572757672591577
0.6836334467 -0.1003156006 -0.0009472433497085574 -0.0002854310071053558
0.6889548898 -0.1003156006 -0.000989824956222188 -0.0002200520107529158
0.6942763329 -0.1003156006 -0.0010392716849036126 -0.0001504467071573184
0.6995977759 -0.1003156006 -0.0010942065964156182 -7.700402771380861e-05
0.7049192786 -0.1003156006 -0.0011557925896845886 1.1641888414021906e-07
0.7102407217 -0.1003156006 -0.0012251235026737323 8.213574125559641e-05
0.7155621648 -0.1003156006 -0.0013049571384333102 0.0001689065278933926
0.7208836079 -0.1003156006 -0.0013946356584527086 0.0002586350034686679
0.7262051105 -0.1003156006 -0.001494012175204159 0.00035190636546727165
0.7315265536 -0.1003156006 -0.0016062226245982573 0.00044976035881653004
0.7368479967 -0.1003156006 -0.0017358347139375062 0.0005516258689710608
0.7421694398 -0.1003156006 -0.0018794046305770187 0.0006576782171277138
0.7474909425 -0.1003156006 -0.0020357576855486977 0.0007572410292441377
0.7528123856 -0.1003156006 -0.002213934384766537 0.0008628562340921321
0.7581338286 -0.1003156006 -0.002411438948663139 0.0009674612064450171
-0.3008363545 -0.09699654579 0.000782874711475468 -0.0008865423089082449
-0.2955148816 -0.09699654579 0.0007985179399434025 -0.0008918228816701441
-0.2901934385 -0.09699654579 0.0008155810705497156 -0.0008912475017735765
-0.2848719656 -0.09699654579 0.0008332367833070076 -0.0008840607061164843
-0.2795505226 -0.09699654579 0.0008532100603179944 -0.0008752881230472215
-0.2742290497 -0.09699654579 0.0008738250115113812 -0.0008624444921613647
-0.2689076066 -0.09699654579 0.0008959426337892617 -0.000844331731653869
-0.2635861337 -0.09699654579 0.0009176504859337621 -0.0008236310091752532
-0.2582646906 -0.09699654579 0.000936323388567098 -0.0008056723665583293
-0.2529432178 -0.09699654579 0.0009528168650606875 -0.0007844723259859072
-0.2476217598 -0.09699654579 0.0009673921726329072 -0.0007614344846927248
-0.2423003018 -0.09699654579 0.000979328576013203 -0.0007373611754581379
-0.2369788438 -0.09699654579 0.0009893057490614706 -0.000716689782686642
-0.2316573858 -0.09699654579 0.000997362035131395 -0.0006954677368043896
-0.2263359278 -0.09699654579 0.0010046253887461703 -0.0006741968547532228
-0.2210144699 -0.09699654579 0.0010115979049715755 -0.0006533121436458839
-0.2156930119 -0.09699654579 0.0010200009732483058 -0.000630327989472735
-0.2103715539 -0.09699654579 0.0010285976160385056 -0.0006064696397906388
-0.2050500959 -0.09699654579 0.001028589490162926 -0.0005814868161081792
-0.1997286379 -0.09699654579 0.0010273214219431801 -0.0005557084530786801
-0.19440718 -0.09699654579 0.001026055987758135 -0.000528727469261342
-0.189085722 -0.09699654579 0.0010212233059329048 -0.0005014610867666539
-0.183764264 -0.09699654579 0.001015280607556098 -0.00047589742938354475
-0.178442806 -0.09699654579 0.0010094783698574158 -0.000449105082992778
-0.173121348 -0.09699654579 0.0009984941363530967 -0.00042761415370771104
-0.16779989 -0.09699654579 0.0009846735293770374 -0.00040819339742899705
-0.1624784321 -0.09699654579 0.0009706909619116734 -0.00038905609237913953
-0.1571569741 -0.09699654579 0.0009546739468425246 -0.00037161720769629016
-0.1518355161 -0.09699654579 0.0009383979586906727 -0.00035656561899362246
-0.1465140581 -0.09699654579 0.0009219343950345972 -0.00034169717910386777
-0.1411926001 -0.09699654579 0.0009047516843268134 -0.0003277045804435496
-0.1358711421 -0.09699654579 0.0008861274189505956 -0.0003168624558256086
-0.1305496842 -0.09699654579 0.000866881126547321 -0.0003060405321939254
-0.1252282262 -0.09699654579 0.0008474655420231499 -0.00029525718878625274
-0.1199067682 -0.09699654579 0.0008294459948830142 -0.0002888374718068393
-0.1145853102 -0.09699654579 0.0008123883732695951 -0.00028341198243089826
-0.1092638522 -0.09699654579 0.0007952035699437788 -0.00027816889533247187
-0.1039423943 -0.09699654579 0.0007776150571778739 -0.0002733004272846038
-0.09862093627 -0.09699654579 0.0007628089430901267 -0.00027123382087795183
-0.09329947084 -0.09699654579 0.000747795470668792 -0.0002692936385314872
-0.08797801286 -0.09699654579 0.000732607150774993 -0.0002674657012036859
-0.08265655488 -0.09699654579 0.0007175321233787351 -0.00026563074616246725
-0.0773350969 -0.09699654579 0.0007035416215252326 -0.0002645840746469999
-0.07201363891 -0.09699654579 0.0006893030430959213 -0.0002636429599872396
-0.06669218093 -0.09699654579 0.0006750666530336453 -0.0002627099477845286
-0.06137072667 -0.09699654579 0.0006608994827869059 -0.00026179072357018795
-0.05604926869 -0.09699654579 0.0006484948706854066 -0.0002622002842615308
-0.05072781071 -0.09699654579 0.0006366451479546086 -0.0002626630970671053
-0.045406349 -0.09699654579 0.0006248173807685963 -0.0002631256545161844
-0.04008489102 -0.09699654579 0.0006129192143173347 -0.000263710703314907
-0.03476343304 -0.09699654579 0.0006014227062896422 -0.00026444660182642864
-0.02944197692 -0.09699654579 0.0005909223312768637 -0.00026505408760904786
-0.02412051894 -0.09699654579 0.000580443481232168 -0.00026565180188012783
-0.01879905909 -0.09699654579 0.0005699537778660884 -0.0002662563698113714
-0.01347760204 -0.09699654579 0.0005594459154188808 -0.00026688641719935317
-0.00815614406 -0.09699654579 0.000549540933577009 -0.0002676948983843613
-0.00283468538 -0.09699654579 0.0005401605567035211 -0.0002685041009947993
0.002486772602 -0.09699654579 0.0005307683072860683 -0.00026934133160145185
0.007808230817 -0.09699654579 0.0005214036816162286 -0.00027018586996721116
0.0131296888 -0.09699654579 0.0005120118589964108 -0.0002710071570204413
0.01845114678 -0.09699654579 0.0005028833652047127 -0.0002717097547578042
0.02377260476 -0.09699654579 0.0004939772384071037 -0.0002722137491668084
0.02909406275 -0.09699654579 0.00048503217609106197 -0.00027273892539323217
0.03441552073 -0.09699654579 0.00047610068938815287 -0.0002732688114626263
0.03973697871 -0.09699654579 0.00046717216774214105 -0.0002737722192999893
0.04505843669 -0.09699654579 0.00045863907665787964 -0.00027408505056418606
0.05037989467 -0.09699654579 0.0004506840784697651 -0.00027384143847914745
0.05570135266 -0.09699654579 0.0004427543992842584 -0.000273598230660556
0.06102281436 -0.09699654579 0.00043484077121444894 -0.0002733777385552232
0.06634426862 -0.09699654579 0.00042690215183361827 -0.0002731270721111802
0.0716657266 -0.09699654579 0.00041896325123044173 -0.00027287722513225706
0.07698718458 -0.09699654579 0.0004114940804228975 -0.00027155376819260226
0.08230864257 -0.09699654579 0.000404047173508311 -0.00027011815381806513
0.08763010055 -0.09699654579 0.00039657844161662426 -0.0002686974249009871
0.09295155853 -0.09699654579 0.00038905776123952855 -0.0002672378924211959
0.09827301651 -0.09699654579 0.00038156872340065756 -0.00026580190802064514
0.1035944745 -0.09699654579 0.0003736078950327712 -0.00026397351140917095
0.1089159325 -0.09699654579 0.0003647255786807956 -0.00026122905543211444
0.1142373979 -0.09699654579 0.00035573889684201854 -0.00025852648571371905
0.1195588559 -0.09699654579 0.00034672835128251336 -0.0002558562410513131
0.1248803139 -0.09699654579 0.0003377440482061933 -0.00025318580409457544
0.1302017719 -0.09699654579 0.00032876222546850055 -0.00025048905792475875
0.1355232298 -0.09699654579 0.00031888954377250526 -0.0002469125655466946
0.1408446878 -0.09699654579 0.00030827902520156523 -0.0002429181308273714
0.1461661458 -0.09699654579 0.0002977093725519601 -0.00023892735536519772
0.1514876038 -0.09699654579 0.0002872665161568274 -0.00023490105922899002
0.1568090618 -0.09699654579 0.00027677216866609736 -0.00023087661252386605
0.1621305197 -0.09699654579 0.00026622748812435654 -0.00022694968561858854
0.1674519777 -0.09699654579 0.00025344377318068284 -0.0002224293529857892
0.1727734357 -0.09699654579 0.00023984245290918453 -0.0002176041859429697
0.1780948937 -0.09699654579 0.00022627165158670685 -0.0002126323144423818
0.1834163517 -0.09699654579 0.00021266039611237626 -0.00020771003219782297
0.1887378097 -0.09699654579 0.00019908066452992582 -0.00020310820604917677
0.1940592676 -0.09699654579 0.00018548797028947907 -0.00019850336256928248
0.1993807256 -0.09699654579 0.00016859993526918378 -0.00019463306780954364
0.2047021836 -0.09699654579 0.0001508445937423141 -0.00019092590438690634
0.2100236416 -0.09699654579 0.00013320787129581324 -0.0001875461799290439
0.2153450996 -0.09699654579 0.00011563667880587459 -0.00018421787795790858
0.2206665576 -0.09699654579 9.80248628754961e-05 -0.000180889340969401
0.2259880155 -0.09699654579 8.043343436364196e-05 -0.00017753693878206077
0.2313094735 -0.09699654579 5.998091537630655e-05 -0.00017632339590010175
0.2366309315 -0.09699654579 3.899197720993413e-05 -0.00017565393860176465
0.2419523895 -0.09699654579 1.7988142126774347e-05 -0.00017498257280682081
0.2472738475 -0.09699654579 -3.010351748097915e-06 -0.0001743119975979927
0.2525953054 -0.09699654579 -2.3894636582758077e-05 -0.00017378657374632234
0.2579167783 -0.09699654579 -4.4603242002701725e-05 -0.00017340208838607772
0.2632382214 -0.09699654579 -6.798163506329692e-05 -0.00017620808882423705
0.2685596943 -0.09699654579 -9.190558455731196e-05 -0.0001796279620889271
0.2738811374 -0.09699654579 -0.00011566410505292118 -0.0001831522921125245
0.2792026103 -0.09699654579 -0.00013909017202586572 -0.00018680966665076884
0.2845240533 -0.09699654579 -0.00016261578394968166 -0.00019043822876825027
0.2898455262 -0.09699654579 -0.000186254249189841 -0.0001940103928502755
0.2951669693 -0.09699654579 -0.0002110294738914286 -0.000202748553508723
0.3004884422 -0.09699654579 -0.0002355806372564855 -0.00021202376882159567
0.3058098853 -0.09699654579 -0.0002601909691023765 -0.0002212602343127193
0.3111313581 -0.09699654579 -0.00028480625584890854 -0.00023049691387907846
0.3164528012 -0.09699654579 -0.0003092448343187641 -0.00023973415251858716
0.3217742741 -0.09699654579 -0.0003331164406510742 -0.0002492842576175697
0.3270957172 -0.09699654579 -0.0003558939553855474 -0.0002639705329838828
0.3324171901 -0.09699654579 -0.0003786275301548309 -0.00027865841768294914
0.3377386332 -0.09699654579 -0.00040122629858442403 -0.0002932554584066955
0.343060106 -0.09699654579 -0.00042363537972709596 -0.0003077671756134546
0.3483815491 -0.09699654579 -0.00044603807749537866 -0.0003222956193295934
0.353703022 -0.09699654579 -0.00046741041944676104 -0.0003383491182506311
0.3590244651 -0.09699654579 -0.00048659000645896153 -0.00035709718516670165
0.364345938 -0.09699654579 -0.0005054475544358062 -0.00037557102794671097
0.369667381 -0.09699654579 -0.0005243498649124277 -0.00039405269549151165
0.3749888539 -0.09699654579 -0.0005433212824118845 -0.00041248490748173344
0.380310297 -0.09699654579 -0.0005621218623887119 -0.0004306897331584934
0.3856317699 -0.09699654579 -0.0005772082131126535 -0.0004508787306399252
0.390953213 -0.09699654579 -0.0005914481792070997 -0.0004717378615524419
0.3962746859 -0.09699654579 -0.0006057654394011878 -0.0004927961810574779
0.4015961289 -0.09699654579 -0.0006199133825428675 -0.0005134736550906489
0.4069176018 -0.09699654579 -0.0006339570682342755 -0.0005338711182310339
0.4122390449 -0.09699654579 -0.000645759496117777 -0.0005545430320297237
0.4175605178 -0.09699654579 -0.0006546574557614818 -0.0005755195898318389
0.4228819609 -0.09699654579 -0.0006636568676249244 -0.0005960139176787482
0.4282034338 -0.09699654579 -0.0006726396067339479 -0.0006163077381723738
0.4335248768 -0.09699654579 -0.0006816561509486382 -0.0006366433800847063
0.4388463497 -0.09699654579 -0.0006892391750236122 -0.0006568342666275775
0.4441677928 -0.09699654579 -0.0006938982049697772 -0.0006753434883011413
0.4494892657 -0.09699654579 -0.0006985962832883852 -0.0006938533336706574
0.4548107088 -0.09699654579 -0.000703340790423492 -0.0007123564373995522
0.4601321816 -0.09699654579 -0.0007082244793266187 -0.0007307894261632163
0.4654536247 -0.09699654579 -0.0007120301382182675 -0.0007476827419259175
0.4707750976 -0.09699654579 -0.0007140195247668831 -0.0007630888162446029
0.4760965407 -0.09699654579 -0.0007157570968902436 -0.0007786785382168311
0.4814180136 -0.09699654579 -0.0007177490228767758 -0.000794092712049289
0.4867394567 -0.09699654579 -0.0007199616542773517 -0.000809267265140567
0.4920609295 -0.09699654579 -0.000720358571460813 -0.0008219323731653935
0.4973823726 -0.09699654579 -0.0007203091315371692 -0.0008339277696847897
0.5027038455 -0.09699654579 -0.0007205782858533462 -0.0008457916270499955
0.5080252886 -0.09699654579 -0.0007207160914544724 -0.0008576773075937853
0.5133467317 -0.09699654579 -0.0007200129211993559 -0.0008678421385145995
0.5186682343 -0.09699654579 -0.000718502385011433 -0.000875925470555422
0.5239896774 -0.09699654579 -0.0007175512129841868 -0.0008838071144041588
0.5293111205 -0.09699654579 -0.0007163449049615802 -0.0008917938803869657
0.5346325636 -0.09699654579 -0.000714374023637772 -0.0008979377910522648
0.5399540663 -0.09699654579 -0.0007124152696749795 -0.0009014716236377133
0.5452755094 -0.09699654579 -0.000710786752916311 -0.0009049784171866776
0.5505969524 -0.09699654579 -0.0007088081151557643 -0.0009085170186729658
0.5559183955 -0.09699654579 -0.0007063068161502237 -0.0009084846402569459
0.5612398982 -0.09699654579 -0.0007045956867144917 -0.0009071544669076685
0.5665613413 -0.09699654579 -0.0007029155098415011 -0.0009058159370832382
0.5718827844 -0.09699654579 -0.0007003108324896747 -0.0009024609697121185
0.5772042274 -0.09699654579 -0.0006990922880262079 -0.0008960181162836944
0.5825257301 -0.09699654579 -0.0006978905345393121 -0.0008895742331032315
0.5878471732 -0.09699654579 -0.0006960704736915647 -0.0008808674247697218
0.5931686163 -0.09699654579 -0.0006960119055422065 -0.0008690486692291055
0.5984900594 -0.09699654579 -0.0006952490199882558 -0.0008567942597852332
0.6038115621 -0.09699654579 -0.0006960676271854272 -0.0008410637757741977
0.6091330051 -0.09699654579 -0.0006969902550429523 -0.0008229024319151851
0.6144544482 -0.09699654579 -0.0006993025430350406 -0.0008037355968081219
0.6197758913 -0.09699654579 -0.0007030127227336018 -0.0007797990455720513
0.625097394 -0.09699654579 -0.0007075743248873015 -0.0007551180354428565
0.6304188371 -0.09699654579 -0.0007142261504334433 -0.0007260957917295415
0.6357402802 -0.09699654579 -0.0007206173871415275 -0.0006948124634701638
0.6410617828 -0.09699654579 -0.0007305397582676263 -0.0006612677176111848
0.6463832259 -0.09699654579 -0.0007418662887853628 -0.0006234623426897203
0.651704669 -0.09699654579 -0.0007551353416556154 -0.000582921687326309
0.6570261121 -0.09699654579 -0.0007729223372668362 -0.0005381319429896448
0.6623476148 -0.09699654579 -0.000793001766172325 -0.0004907455425348705
0.6676690578 -0.09699654579 -0.000815256614183052 -0.0004393695726786927
0.6729905009 -0.09699654579 -0.0008419123650893636 -0.00038398033207329634
0.678311944 -0.09699654579 -0.000871508803983814 -0.0003241840651732687
0.6836334467 -0.09699654579 -0.0009053959107586185 -0.0002614087396343316
0.6889548898 -0.09699654579 -0.0009457730753537538 -0.00019368259106218678
0.6942763329 -0.09699654579 -0.0009920033922566661 -0.00012084760235073531
0.6995977759 -0.09699654579 -0.0010432384094608079 -4.249643431405151e-05
0.7049192786 -0.09699654579 -0.001101964485087658 3.9326075365814036e-05
0.7102407217 -0.09699654579 -0.0011691551607540976 0.000126232235638211
0.7155621648 -0.09699654579 -0.001247341912550716 0.00021881308963026384
0.7208836079 -0.09699654579 -0.001334062663347165 0.0003176124624911
0.7262051105 -0.09699654579 -0.0014325477150871134 0.0004205688451649407
0.7315265536 -0.09699654579 -0.0015431456166960771 0.0005244975020736835
0.7368479967 -0.09699654579 -0.0016672701991408243 0.0006361399238404582
0.7421694398 -0.09699654579 -0.0018096901868912818 0.0007487786240549918
0.7474909425 -0.09699654579 -0.0019668217951138794 0.0008657588486225608
0.7528123856 -0.09699654579 -0.0021455904805469167 0.0009809040250804587
0.7581338286 -0.09699654579 -0.0023446737875100487 0.0010960231559336425
-0.3008363545 -0.09367749095 0.0007838614749382061 -0.0008948093349506363
-0.2955148816 -0.09367749095 0.0008000560449112821 -0.0009009967511656787
-0.2901934385 -0.09367749095 0.0008181256987031624 -0.0009048403559445735
-0.2848719656 -0.09367749095 0.0008376155571211755 -0.0009002304859255176
-0.2795505226 -0.09367749095 0.0008572376835355393 -0.0008908821265093622
-0.2742290497 -0.09367749095 0.0008798907194366989 -0.0008772826974844278