VARIABLES = X,Y,phix,phiy
ZONE I=200,J=200,F=POINT 
-0.3008363545 -0.1003156006 -0.0006537097734840958 0.00023110154535449246
-0.2955148816 -0.1003156006 -0.000660469308658248 0.00023914206382306407
-0.2901934385 -0.1003156006 -0.0006693507629922917 0.00024334359920989083
-0.2848719656 -0.1003156006 -0.0006791373568317901 0.0002478494217172972
-0.2795505226 -0.1003156006 -0.0006878845959083447 0.00025243703104474115
-0.2742290497 -0.1003156006 -0.0006955560320076163 0.00025577210210052533
-0.2689076066 -0.1003156006 -0.0007038482459936089 0.00025991101573844764
-0.2635861337 -0.1003156006 -0.0007177593886392282 0.00026376392469560294
-0.2582646906 -0.1003156006 -0.0007368666295115573 0.00026575429385753264
-0.2529432178 -0.1003156006 -0.0007575122554758668 0.0002669308431947295
-0.2476217598 -0.1003156006 -0.0007793515731210985 0.00026968960430162766
-0.2423003018 -0.1003156006 -0.0007945975906779566 0.00027277849990280947
-0.2369788438 -0.1003156006 -0.000808157023162339 0.000272606152819119
-0.2316573858 -0.1003156006 -0.0008225494019835219 0.0002703753253483364
-0.2263359278 -0.1003156006 -0.000835956205953848 0.000267561937759112
-0.2210144699 -0.1003156006 -0.0008446216855191467 0.0002671914627743851
-0.2156930119 -0.1003156006 -0.0008528802737799898 0.0002663731587083667
-0.2103715539 -0.1003156006 -0.0008607590306042622 0.0002658184531691934
-0.2050500959 -0.1003156006 -0.0008661143284116663 0.000265811122917749
-0.1997286379 -0.1003156006 -0.0008705117577103333 0.0002652719669785227
-0.19440718 -0.1003156006 -0.0008761389315274121 0.00026610912053988856
-0.189085722 -0.1003156006 -0.0008909311716508608 0.0002694727502605663
-0.183764264 -0.1003156006 -0.0009082077194054617 0.0002723033768942223
-0.178442806 -0.1003156006 -0.0009257393072819233 0.0002750129521276532
-0.173121348 -0.1003156006 -0.0009400920032222747 0.00027464998235576674
-0.16779989 -0.1003156006 -0.000953329129513854 0.0002733074133787863
-0.1624784321 -0.1003156006 -0.0009663096532554 0.00027089962672149654
-0.1571569741 -0.1003156006 -0.0009782575801925426 0.0002661037025008059
-0.1518355161 -0.1003156006 -0.0009907793889499669 0.0002593437728811748
-0.1465140581 -0.1003156006 -0.0010034337775685698 0.0002527331317645114
-0.1411926001 -0.1003156006 -0.0010154804804799755 0.00024613931647747507
-0.1358711421 -0.1003156006 -0.0010241403037063229 0.0002386739324753626
-0.1305496842 -0.1003156006 -0.0010327933630824668 0.0002312086821676591
-0.1252282262 -0.1003156006 -0.0010418750338350388 0.00022345817413736916
-0.1199067682 -0.1003156006 -0.0010503038767269936 0.0002163694047989595
-0.1145853102 -0.1003156006 -0.001058447897294848 0.0002090264663893302
-0.1092638522 -0.1003156006 -0.0010668778922285306 0.00020164752469716156
-0.1039423943 -0.1003156006 -0.0010752400527708963 0.00019459368336578037
-0.09862093627 -0.1003156006 -0.0010832604274610745 0.00018734322974671308
-0.09329947084 -0.1003156006 -0.001091345696039347 0.00018003706861192617
-0.08797801286 -0.1003156006 -0.0010994254350754154 0.00017272926089178308
-0.08265655488 -0.1003156006 -0.0011075928986606278 0.00016551726552198096
-0.0773350969 -0.1003156006 -0.0011144047604246985 0.00015821487915602852
-0.07201363891 -0.1003156006 -0.0011211510494779486 0.00015100576262190064
-0.06669218093 -0.1003156006 -0.001127849885277689 0.00014379733094076842
-0.06137072667 -0.1003156006 -0.0011346912931350065 0.000136491373927063
-0.05604926869 -0.1003156006 -0.0011413754667235069 0.0001293153005683028
-0.05072781071 -0.1003156006 -0.0011478296447359562 0.00012199901422319864
-0.045406349 -0.1003156006 -0.0011541794432500007 0.00011473306113401124
-0.04008489102 -0.1003156006 -0.0011606894454302896 0.0001074605020474818
-0.03476343304 -0.1003156006 -0.0011671517554250664 0.00010006304064767485
-0.02944197692 -0.1003156006 -0.0011729927730542578 9.220615584221285e-05
-0.02412051894 -0.1003156006 -0.001178841828165629 8.431411581248305e-05
-0.01879905909 -0.1003156006 -0.0011848117523437119 7.636488408805911e-05
-0.01347760204 -0.1003156006 -0.0011906732241078397 6.848714941929269e-05
-0.00815614406 -0.1003156006 -0.0011958933774788303 6.031280728946785e-05
-0.00283468538 -0.1003156006 -0.0012004328131437485 5.185463084573778e-05
0.002486772602 -0.1003156006 -0.0012049921827761135 4.328402283435104e-05
0.007808230817 -0.1003156006 -0.0012095792980491619 3.470455142109777e-05
0.0131296888 -0.1003156006 -0.0012141084198999334 2.6226598092711495e-05
0.01845114678 -0.1003156006 -0.0012179004872104543 1.7522072636076013e-05
0.02377260476 -0.1003156006 -0.0012209391151786183 8.618972092251244e-06
0.02909406275 -0.1003156006 -0.0012240411805871198 -3.554642173274436e-07
0.03441552073 -0.1003156006 -0.0012271617512180568 -9.329703697911689e-06
0.03973697871 -0.1003156006 -0.0012302210925477434 -1.8243391332736518e-05
0.04505843669 -0.1003156006 -0.0012331414837225081 -2.7198777585233273e-05
0.05037989467 -0.1003156006 -0.0012355436064458963 -3.629202879612727e-05
0.05570135266 -0.1003156006 -0.001238008362160099 -4.5397093398911996e-05
0.06102281436 -0.1003156006 -0.001240501381229959 -5.4539760782014786e-05
0.06634426862 -0.1003156006 -0.0012429259799704717 -6.362352113211723e-05
0.0716657266 -0.1003156006 -0.0012453235685546532 -7.2703565230198e-05
0.07698718458 -0.1003156006 -0.001246885483613106 -8.221337575846802e-05
0.08230864257 -0.1003156006 -0.0012483459347623913 -9.175891279356034e-05
0.08763010055 -0.1003156006 -0.0012498175404412068 -0.00010132859706606865
0.09295155853 -0.1003156006 -0.0012512788477479927 -0.0001108488412072867
0.09827301651 -0.1003156006 -0.0012527241619966034 -0.00012035973761991504
0.1035944745 -0.1003156006 -0.001253660874768422 -0.00012984422442863876
0.1089159325 -0.1003156006 -0.0012534454484776042 -0.00013924285283073123
0.1142373979 -0.1003156006 -0.0012532450553754712 -0.00014864210218146277
0.1195588559 -0.1003156006 -0.0012530242843092091 -0.0001579528188181405
0.1248803139 -0.1003156006 -0.0012528163372826006 -0.00016727710696926913
0.1302017719 -0.1003156006 -0.0012525827881229125 -0.00017664851307230644
0.1355232298 -0.1003156006 -0.0012518436922093427 -0.0001861633224595863
0.1408446878 -0.1003156006 -0.0012506201275128861 -0.00019571772207523398
0.1461661458 -0.1003156006 -0.0012493396070470144 -0.00020524997903213367
0.1514876038 -0.1003156006 -0.0012480683357680297 -0.00021478415141944164
0.1568090618 -0.1003156006 -0.0012467726013063324 -0.00022431599369624242
0.1621305197 -0.1003156006 -0.001245546384235595 -0.00023384864533858255
0.1674519777 -0.1003156006 -0.0012432897700844418 -0.0002440089497699196
0.1727734357 -0.1003156006 -0.0012405572531268977 -0.00025458703255411513
0.1780948937 -0.1003156006 -0.0012378106583533796 -0.00026516351847350665
0.1834163517 -0.1003156006 -0.0012350808630313653 -0.0002757421442448528
0.1887378097 -0.1003156006 -0.0012323078622359274 -0.00028622703259555517
0.1940592676 -0.1003156006 -0.0012294716982330588 -0.0002966470501115507
0.1993807256 -0.1003156006 -0.0012242173196186134 -0.00030728426616197837
0.2047021836 -0.1003156006 -0.0012180979503579133 -0.00031797480222785826
0.2100236416 -0.1003156006 -0.001211977648932933 -0.0003286511062791278
0.2153450996 -0.1003156006 -0.0012059338978275985 -0.00033900197872725627
0.2206665576 -0.1003156006 -0.0011998316058190036 -0.0003495187784927563
0.2259880155 -0.1003156006 -0.0011937422640507212 -0.00036003494728791636
0.2313094735 -0.1003156006 -0.0011846547031706225 -0.0003692857349154994
0.2366309315 -0.1003156006 -0.0011748962880726113 -0.00037781564837263004
0.2419523895 -0.1003156006 -0.0011651731033067425 -0.00038625687374131554
0.2472738475 -0.1003156006 -0.001155542109128135 -0.00039470748919343056
0.2525953054 -0.1003156006 -0.0011460035064870516 -0.0004031280760736849
0.2579167783 -0.1003156006 -0.0011365971611441664 -0.00041137806483624754
0.2632382214 -0.1003156006 -0.0011255213585389637 -0.0004169507536500855
0.2685596943 -0.1003156006 -0.0011138853486466868 -0.0004218318688314126
0.2738811374 -0.1003156006 -0.0011021304543984184 -0.0004267388805622857
0.2792026103 -0.1003156006 -0.0010904779222145817 -0.0004316151689924177
0.2845240533 -0.1003156006 -0.0010791390428499766 -0.00043644536919038295
0.2898455262 -0.1003156006 -0.001067739681508675 -0.0004412747591041258
0.2951669693 -0.1003156006 -0.001055780977575729 -0.0004432494098086248
0.3004884422 -0.1003156006 -0.0010437505287489602 -0.00044472681176336914
0.3058098853 -0.1003156006 -0.001032057089852982 -0.00044619430171129746
0.3111313581 -0.1003156006 -0.001020338327520867 -0.0004476625280602608
0.3164528012 -0.1003156006 -0.0010086028614820853 -0.00044913023232025484
0.3217742741 -0.1003156006 -0.0009969367426628485 -0.0004504932781359312
0.3270957172 -0.1003156006 -0.0009852325720006102 -0.00044897356552340943
0.3324171901 -0.1003156006 -0.0009736104658823995 -0.00044747627007745696
0.3377386332 -0.1003156006 -0.0009619662385101125 -0.00044597972791232286
0.343060106 -0.1003156006 -0.0009503372285454178 -0.0004444635679330045
0.3483815491 -0.1003156006 -0.0009390073569294724 -0.0004429376169707646
0.353703022 -0.1003156006 -0.0009277988117407718 -0.0004404744749752723
0.3590244651 -0.1003156006 -0.0009165959080535752 -0.0004358032461130495
0.364345938 -0.1003156006 -0.000905432213710571 -0.000431128887505311
0.369667381 -0.1003156006 -0.0008946006873313275 -0.00042650405820062105
0.3749888539 -0.1003156006 -0.0008836800507074098 -0.00042185921928855407
0.380310297 -0.1003156006 -0.0008727206581766983 -0.00041724006131916577
0.3856317699 -0.1003156006 -0.0008626394587815501 -0.00041038280172205787
0.390953213 -0.1003156006 -0.0008530831766020195 -0.00040295101392442723
0.3962746859 -0.1003156006 -0.0008435821472901591 -0.000395575095808234
0.4015961289 -0.1003156006 -0.0008340488848040243 -0.00038822612440212026
0.4069176018 -0.1003156006 -0.0008245367822291664 -0.000380870670709697
0.4122390449 -0.1003156006 -0.0008159637024301327 -0.00037284467737308926
0.4175605178 -0.1003156006 -0.0008082607124279198 -0.0003634321049785282
0.4228819609 -0.1003156006 -0.000800429995661203 -0.0003540107189700256
0.4282034338 -0.1003156006 -0.0007926256202186296 -0.00034455204748573743
0.4335248768 -0.1003156006 -0.0007850671169035126 -0.0003353396150836499
0.4388463497 -0.1003156006 -0.000777946723396588 -0.0003257162271819023
0.4441677928 -0.1003156006 -0.0007718811945519177 -0.0003148869717523867
0.4494892657 -0.1003156006 -0.0007659145943697308 -0.00030403255067199117
0.4548107088 -0.1003156006 -0.0007600438103326586 -0.00029331176528947224
0.4601321816 -0.1003156006 -0.0007540612526346968 -0.0002825724990199799
0.4654536247 -0.1003156006 -0.000748624023084244 -0.00027139848936638786
0.4707750976 -0.1003156006 -0.0007440353279761564 -0.0002594748321919028
0.4760965407 -0.1003156006 -0.0007394828353518421 -0.0002477274061160686
0.4814180136 -0.1003156006 -0.0007349466318704286 -0.0002359802284524894
0.4867394567 -0.1003156006 -0.000730439411253093 -0.00022419187529080202
0.4920609295 -0.1003156006 -0.0007267275358532808 -0.0002117128370786201
0.4973823726 -0.1003156006 -0.0007231412877793694 -0.00019913342680005026
0.5027038455 -0.1003156006 -0.000719466373891636 -0.00018652942183915592
0.5080252886 -0.1003156006 -0.0007158540729512393 -0.00017390114945165395
0.5133467317 -0.1003156006 -0.0007125653906699137 -0.0001610205787266241
0.5186682343 -0.1003156006 -0.000709324133474186 -0.00014759534318593552
0.5239896774 -0.1003156006 -0.0007059417189990638 -0.00013421961487499148
0.5293111205 -0.1003156006 -0.0007027475698975668 -0.00012080275423286556
0.5346325636 -0.1003156006 -0.0006994554746228971 -0.0001069837696987334
0.5399540663 -0.1003156006 -0.0006958804911205421 -9.253732152615275e-05
0.5452755094 -0.1003156006 -0.0006920910358464141 -7.815161180544389e-05
0.5505969524 -0.1003156006 -0.0006886219433759284 -6.36791461151967e-05
0.5559183955 -0.1003156006 -0.0006847074602337525 -4.7903161165640226e-05
0.5612398982 -0.1003156006 -0.0006800999791248645 -3.1813246144161384e-05
0.5665613413 -0.1003156006 -0.0006756124323263192 -1.5701335290189433e-05
0.5718827844 -0.1003156006 -0.0006711814577104876 1.5836636835210045e-06
0.5772042274 -0.1003156006 -0.0006656859726694907 2.0254800929794878e-05
0.5825257301 -0.1003156006 -0.0006599456841433635 3.89440698610126e-05
0.5878471732 -0.1003156006 -0.0006546639327439999 5.904139486253078e-05
0.5931686163 -0.1003156006 -0.0006482129656244462 8.111060035265497e-05
0.5984900594 -0.1003156006 -0.0006417246188669632 0.00010300315301226828
0.6038115621 -0.1003156006 -0.000634613868326283 0.00012762969990025178
0.6091330051 -0.1003156006 -0.0006275472756818219 0.00015294755601008602
0.6144544482 -0.1003156006 -0.0006192015110624928 0.00018046986984311493
0.6197758913 -0.1003156006 -0.0006114591192897874 0.0002098999255408669
0.625097394 -0.1003156006 -0.0006032803337833676 0.000241283467136795
0.6304188371 -0.1003156006 -0.0005944591981844387 0.0002759115826943772
0.6357402802 -0.1003156006 -0.0005870090702540509 0.0003121504982555082
0.6410617828 -0.1003156006 -0.000578742311639445 0.00035191684123516277
0.6463832259 -0.1003156006 -0.0005705965527535002 0.0003937839211814528
0.651704669 -0.1003156006 -0.0005620374236105452 0.0004378537991127381
0.6570261121 -0.1003156006 -0.0005552664742314731 0.0004861999890609713
0.6623476148 -0.1003156006 -0.0005480975391587284 0.0005382884580231962
0.6676690578 -0.1003156006 -0.0005415511396363555 0.0005931754161291638
0.6729905009 -0.1003156006 -0.0005364600807344562 0.0006541238382962454
0.678311944 -0.1003156006 -0.0005333444461689875 0.0007181579076683953
0.6836334467 -0.1003156006 -0.0005308298995042843 0.0007865045029132068
0.6889548898 -0.1003156006 -0.000529098155172277 0.0008612719105974681
0.6942763329 -0.1003156006 -0.0005306760148725172 0.0009412947250937
0.6995977759 -0.1003156006 -0.0005340640059184063 0.0010265057997773115
0.7049192786 -0.1003156006 -0.0005399252285101746 0.0011172206970907284
0.7102407217 -0.1003156006 -0.0005482855534628136 0.0012158319858216642
0.7155621648 -0.1003156006 -0.0005617323751884505 0.0013219071297636668
0.7208836079 -0.1003156006 -0.0005803035343710558 0.0014349160482658213
0.7262051105 -0.1003156006 -0.0006030383239873189 0.001555999822220514
0.7315265536 -0.1003156006 -0.0006329894628244631 0.0016867051057863525
0.7368479967 -0.1003156006 -0.0006716643551955243 0.0018302459304571693
0.7421694398 -0.1003156006 -0.0007182187693608289 0.001983799505842389
0.7474909425 -0.1003156006 -0.0007752401603000863 0.002139968640488775
0.7528123856 -0.1003156006 -0.0008473950898897731 0.002314011565247076
0.7581338286 -0.1003156006 -0.0009323570252818987 0.002499713921441295
-0.3008363545 -0.09699654579 -0.0006509395643183948 0.00023651897379311628
-0.2955148816 -0.09699654579 -0.0006590426283343298 0.00024441234087256916
-0.2901934385 -0.09699654579 -0.0006671540904705577 0.00025115089170778
-0.2848719656 -0.09699654579 -0.0006763864020967792 0.0002558602387710345
-0.2795505226 -0.09699654579 -0.0006852415500839234 0.00026024122959268344
-0.2742290497 -0.09699654579 -0.0006938621636972795 0.00026467449733723374
-0.2689076066 -0.09699654579 -0.0007022107765150659 0.00026835676792671005
-0.2635861337 -0.09699654579 -0.0007108130795810302 0.0002719101271505998
-0.2582646906 -0.09699654579 -0.0007296749938579775 0.00027391623404944093
-0.2529432178 -0.09699654579 -0.0007504483264761659 0.00027628388410074617
-0.2476217598 -0.09699654579 -0.0007738747311602006 0.0002793532711094007
-0.2423003018 -0.09699654579 -0.0007932230573369993 0.0002826527500696115
-0.2369788438 -0.09699654579 -0.0008066523489080826 0.00028188592631289613
-0.2316573858 -0.09699654579 -0.000821648185144662 0.00027824254107654804
-0.2263359278 -0.09699654579 -0.000835949353232159 0.000272377242941995
-0.2210144699 -0.09699654579 -0.0008438896609174202 0.0002717132093370119
-0.2156930119 -0.09699654579 -0.0008519486946636859 0.0002717053640266135
-0.2103715539 -0.09699654579 -0.0008585032466194924 0.0002718841163493386
-0.2050500959 -0.09699654579 -0.0008631193024608797 0.0002729351579334871
-0.1997286379 -0.09699654579 -0.0008688308970772278 0.0002738407530112849
-0.19440718 -0.09699654579 -0.0008745679059037836 0.0002748974379202852
-0.189085722 -0.09699654579 -0.0008893531652148561 0.0002778681144376966
-0.183764264 -0.09699654579 -0.0009076993159347566 0.00028001543599311064
-0.178442806 -0.09699654579 -0.0009260766267640522 0.0002819866922939847
-0.173121348 -0.09699654579 -0.0009408793944320552 0.0002817015938149548
-0.16779989 -0.09699654579 -0.0009534849733505005 0.0002792214196905012
-0.1624784321 -0.09699654579 -0.0009659509562375079 0.0002768694834698601
-0.1571569741 -0.09699654579 -0.0009778338277410075 0.00027205851990814566
-0.1518355161 -0.09699654579 -0.0009905024010940732 0.0002656320679630466
-0.1465140581 -0.09699654579 -0.0010040744043232435 0.00025890513045232524
-0.1411926001 -0.09699654579 -0.0010163596681371633 0.00025243984419860596
-0.1358711421 -0.09699654579 -0.0010255505150013255 0.0002446338417897126
-0.1305496842 -0.09699654579 -0.0010347361934890376 0.000236804825928239
-0.1252282262 -0.09699654579 -0.0010437551249503911 0.00022906213854152722
-0.1199067682 -0.09699654579 -0.0010526915128018283 0.0002216018079595083
-0.1145853102 -0.09699654579 -0.00106076150695229 0.0002143215467732587
-0.1092638522 -0.09699654579 -0.001069074416543255 0.00020694182204776646
-0.1039423943 -0.09699654579 -0.0010778466777744086 0.0001998003739149868
-0.09862093627 -0.09699654579 -0.0010858007521590786 0.00019243148292043372
-0.09329947084 -0.09699654579 -0.001093872915863223 0.00018495159356808402
-0.08797801286 -0.09699654579 -0.0011020510319093364 0.0001773987535495429
-0.08265655488 -0.09699654579 -0.0011101927972430453 0.0001701214641229195
-0.0773350969 -0.09699654579 -0.0011170673800538899 0.00016277916794503512
-0.07201363891 -0.09699654579 -0.0011239488758697479 0.00015544530491062018
-0.06669218093 -0.09699654579 -0.0011308248684212692 0.00014812504841183838
-0.06137072667 -0.09699654579 -0.001137578984573662 0.00014075259553697847
-0.05604926869 -0.09699654579 -0.0011444350177411302 0.00013345032707759967
-0.05072781071 -0.09699654579 -0.0011509707153076934 0.0001261555888961248
-0.045406349 -0.09699654579 -0.0011575152554894345 0.00011886088131224762
-0.04008489102 -0.09699654579 -0.001164182864168718 0.0001115247150605412
-0.03476343304 -0.09699654579 -0.0011708360751920314 0.00010402742319393123
-0.02944197692 -0.09699654579 -0.001176857840592298 9.600301689187284e-05
-0.02412051894 -0.09699654579 -0.001182852551935343 8.797133815645228e-05
-0.01879905909 -0.09699654579 -0.0011888648541521815 7.995157051321963e-05
-0.01347760204 -0.09699654579 -0.001194914242940857 7.190710819673166e-05
-0.00815614406 -0.09699654579 -0.0012002343579323013 6.352834278867342e-05
-0.00283468538 -0.09699654579 -0.0012048018106996425 5.4846767993340516e-05
0.002486772602 -0.09699654579 -0.0012093831132140385 4.612703754870823e-05
0.007808230817 -0.09699654579 -0.0012139390756772694 3.738916716087837e-05
0.0131296888 -0.09699654579 -0.0012185003276864433 2.8692803695943678e-05
0.01845114678 -0.09699654579 -0.0012223409489789286 1.981061180627972e-05
0.02377260476 -0.09699654579 -0.001225502393262199 1.0774213900399845e-05
0.02909406275 -0.09699654579 -0.0012286574820409427 1.7223829531828714e-06
0.03441552073 -0.09699654579 -0.0012318282762422788 -7.3433712984333265e-06
0.03973697871 -0.09699654579 -0.0012349827246052225 -1.6375259018723247e-05
0.04505843669 -0.09699654579 -0.0012380388304793933 -2.5453387610433704e-05
0.05037989467 -0.09699654579 -0.0012406905113924549 -3.4640468430556226e-05
0.05570135266 -0.09699654579 -0.0012433543224676955 -4.380438171169332e-05
0.06102281436 -0.09699654579 -0.0012460949834426258 -5.299404897301938e-05
0.06634426862 -0.09699654579 -0.0012487215415103085 -6.217155339168583e-05
0.0716657266 -0.09699654579 -0.0012513637888868542 -7.13491683763226e-05
0.07698718458 -0.09699654579 -0.0012531238252867871 -8.10625180355263e-05
0.08230864257 -0.09699654579 -0.001254779233432342 -9.080722420279629e-05
0.08763010055 -0.09699654579 -0.0012564013847864532 -0.00010049584017680556
0.09295155853 -0.09699654579 -0.0012580123761235735 -0.00011016160025150446
0.09827301651 -0.09699654579 -0.0012596554379607446 -0.00011987223303818943
0.1035944745 -0.09699654579 -0.0012607518206623153 -0.0001295315632743479
0.1089159325 -0.09699654579 -0.001260610914748668 -0.00013905908652111015
0.1142373979 -0.09699654579 -0.0012605216458479122 -0.00014851600581065376
0.1195588559 -0.09699654579 -0.0012604069734681387 -0.0001579632701330987
0.1248803139 -0.09699654579 -0.0012603127818067738 -0.0001674092019912141
0.1302017719 -0.09699654579 -0.0012601920576308444 -0.00017684884379050373
0.1355232298 -0.09699654579 -0.00125962066296662 -0.00018649548983278052
0.1408446878 -0.09699654579 -0.0012586179531393917 -0.00019610859140208666
0.1461661458 -0.09699654579 -0.0012575657876142477 -0.0002057493853657184
0.1514876038 -0.09699654579 -0.0012564135990726913 -0.00021538583061657052
0.1568090618 -0.09699654579 -0.0012552409427160742 -0.0002250238276637531
0.1621305197 -0.09699654579 -0.0012540311730234656 -0.00023459267134431447
0.1674519777 -0.09699654579 -0.0012518508798895097 -0.00024508493352690065
0.1727734357 -0.09699654579 -0.001249262824776358 -0.00025589253622447874
0.1780948937 -0.09699654579 -0.001246701490025331 -0.00026681939160367094
0.1834163517 -0.09699654579 -0.0012441521109410592 -0.0002776810475392693
0.1887378097 -0.09699654579 -0.00124145058478936 -0.0002883804954340204
0.1940592676 -0.09699654579 -0.00123878090716493 -0.00029907906290866276
0.1993807256 -0.09699654579 -0.001233392810836466 -0.00031014929988437055
0.2047021836 -0.09699654579 -0.0012271890661810774 -0.0003213071196168578
0.2100236416 -0.09699654579 -0.0012210716776825284 -0.0003320904466004386
0.2153450996 -0.09699654579 -0.0012149302755934711 -0.0003428720410623869
0.2206665576 -0.09699654579 -0.0012088022817725752 -0.00035365218708738463
0.2259880155 -0.09699654579 -0.0012026856782839264 -0.0003644104834200309
0.2313094735 -0.09699654579 -0.0011934220212180121 -0.0003737997028797428
0.2366309315 -0.09699654579 -0.001183277577518536 -0.0003828162345131476
0.2419523895 -0.09699654579 -0.0011731151055856543 -0.0003918323816134361
0.2472738475 -0.09699654579 -0.0011629654192590595 -0.00040084852781498246
0.2525953054 -0.09699654579 -0.001152990132194054 -0.0004096083292644124
0.2579167783 -0.09699654579 -0.0011431853061520721 -0.00041821117773329085
0.2632382214 -0.09699654579 -0.0011312782461220777 -0.0004238856639436608
0.2685596943 -0.09699654579 -0.0011189161660960377 -0.00042892942189192264
0.2738811374 -0.09699654579 -0.0011067865649183807 -0.00043387311216878824
0.2792026103 -0.09699654579 -0.0010948805151646851 -0.00043873834202723497
0.2845240533 -0.09699654579 -0.0010829394270810496 -0.000443606367270871
0.2898455262 -0.09699654579 -0.0010708563725325743 -0.000448532107336839
0.2951669693 -0.09699654579 -0.0010583589825435109 -0.0004503305597146496
0.3004884422 -0.09699654579 -0.001046056264488525 -0.0004518029979375666
0.3058098853 -0.09699654579 -0.0010338284999811087 -0.0004533275698172627
0.3111313581 -0.09699654579 -0.0010216173668540882 -0.0004548487494683657
0.3164528012 -0.09699654579 -0.0010095274329107917 -0.0004563307382768006
0.3217742741 -0.09699654579 -0.0009976810895372269 -0.0004576511348363595
0.3270957172 -0.09699654579 -0.0009854931415852258 -0.0004562001867055558
0.3324171901 -0.09699654579 -0.0009733648033972449 -0.00045475202683422126
0.3377386332 -0.09699654579 -0.000961346586194864 -0.0004532554990642549
0.343060106 -0.09699654579 -0.0009494811454871093 -0.0004517158646672937
0.3483815491 -0.09699654579 -0.0009375462665032991 -0.00045022957468311654
0.353703022 -0.09699654579 -0.0009256831681440716 -0.00044761701082160125
0.3590244651 -0.09699654579 -0.0009139623912259719 -0.00044279381731577775
0.364345938 -0.09699654579 -0.0009025095350519028 -0.0004380523553541543
0.369667381 -0.09699654579 -0.0008910273869963963 -0.0004333241230241513
0.3749888539 -0.09699654579 -0.0008796435554691361 -0.00042860615592004125
0.380310297 -0.09699654579 -0.0008684717361224465 -0.0004238982061764848
0.3856317699 -0.09699654579 -0.000858434453548852 -0.0004169564866389176
0.390953213 -0.09699654579 -0.0008485336974572705 -0.00040930458884585774
0.3962746859 -0.09699654579 -0.0008385645499816371 -0.0004016323148518587
0.4015961289 -0.09699654579 -0.000828750372290112 -0.0003940304372962813
0.4069176018 -0.09699654579 -0.0008190790997493862 -0.0003865593939945813
0.4122390449 -0.09699654579 -0.0008101409436991372 -0.00037814313411015907
0.4175605178 -0.09699654579 -0.0008020579135622557 -0.0003684513919299952
0.4228819609 -0.09699654579 -0.0007941966325324809 -0.0003588736379230145
0.4282034338 -0.09699654579 -0.0007863815413016297 -0.00034941206571714685
0.4335248768 -0.09699654579 -0.0007785609582212604 -0.0003399076591185944
0.4388463497 -0.09699654579 -0.0007711615156789088 -0.0003298079636507318
0.4441677928 -0.09699654579 -0.0007650110995335183 -0.0003188014834970438
0.4494892657 -0.09699654579 -0.000758867656576532 -0.00030785322433304684
0.4548107088 -0.09699654579 -0.000752707872252166 -0.00029690119450798315
0.4601321816 -0.09699654579 -0.0007466166869656191 -0.0002859235576465108
0.4654536247 -0.09699654579 -0.0007411873089169365 -0.0002747223826505629
0.4707750976 -0.09699654579 -0.000736519784917365 -0.00026270839131823813
0.4760965407 -0.09699654579 -0.0007317477387098262 -0.0002506414372773087
0.4814180136 -0.09699654579 -0.0007270677940980069 -0.00023861762481423716
0.4867394567 -0.09699654579 -0.0007224326326443112 -0.00022675440532374355
0.4920609295 -0.09699654579 -0.000718542678075833 -0.00021425399481811972
0.4973823726 -0.09699654579 -0.0007148125093591835 -0.0002015366244473323
0.5027038455 -0.09699654579 -0.0007113103786521129 -0.0001887518618017368
0.5080252886 -0.09699654579 -0.0007076362070883424 -0.00017606862529581722
0.5133467317 -0.09699654579 -0.0007040478977181393 -0.00016312112208726872
0.5186682343 -0.09699654579 -0.0007006854966043828 -0.00014971350224329296
0.5239896774 -0.09699654579 -0.0006973384338801969 -0.00013631925560494
0.5293111205 -0.09699654579 -0.0006940547087886615 -0.00012288371050415837
0.5346325636 -0.09699654579 -0.0006903404416967426 -0.00010918881512200623
0.5399540663 -0.09699654579 -0.0006865646878239498 -9.479066689231957e-05
0.5452755094 -0.09699654579 -0.0006827141555327761 -8.038449582543208e-05
0.5505969524 -0.09699654579 -0.0006789288277876514 -6.598613680316882e-05
0.5559183955 -0.09699654579 -0.000674276679269086 -5.053760187138605e-05
0.5612398982 -0.09699654579 -0.0006695406621300865 -3.447171752582786e-05
0.5665613413 -0.09699654579 -0.0006648820802348058 -1.8398290338106244e-05
0.5718827844 -0.09699654579 -0.0006593340542362989 -1.6318871429452796e-06
0.5772042274 -0.09699654579 -0.0006535954180228162 1.6904520226964726e-05
0.5825257301 -0.09699654579 -0.0006478924637878189 3.543991802348974e-05
0.5878471732 -0.09699654579 -0.0006409951753124651 5.4957239106730044e-05
0.5931686163 -0.09699654579 -0.0006341061458008091 7.66448428947309e-05
0.5984900594 -0.09699654579 -0.0006267018949400461 9.830554279064876e-05
0.6038115621 -0.09699654579 -0.0006187112974641851 0.0001225915053721863
0.6091330051 -0.09699654579 -0.000610171050601798 0.00014809223412301224
0.6144544482 -0.09699654579 -0.0006017084628669333 0.0001749525719760241
0.6197758913 -0.09699654579 -0.0005922302828762259 0.00020506136174604903
0.625097394 -0.09699654579 -0.0005831676669764457 0.0002358758679621451
0.6304188371 -0.09699654579 -0.000573601845863763 0.00027074114021527506
0.6357402802 -0.09699654579 -0.0005628058850193231 0.00030661186745427923
0.6410617828 -0.09699654579 -0.0005534345509092563 0.0003452085585925127
0.6463832259 -0.09699654579 -0.0005428985669802187 0.00038754613109999415
0.651704669 -0.09699654579 -0.0005326854189499 0.0004321071057282023
0.6570261121 -0.09699654579 -0.000523482648863191 0.0004816659462347439
0.6623476148 -0.09699654579 -0.0005148584161105762 0.0005337338719535377
0.6676690578 -0.09699654579 -0.0005061331353424521 0.0005902512534355078
0.6729905009 -0.09699654579 -0.0004985933092269876 0.0006506284334309243
0.678311944 -0.09699654579 -0.0004910757108718784 0.0007152697677054989
0.6836334467 -0.09699654579 -0.0004848580151259913 0.0007840575905420009
0.6889548898 -0.09699654579 -0.0004811023522287793 0.0008588361792166876
0.6942763329 -0.09699654579 -0.00047863511974871744 0.0009399041342851124
0.6995977759 -0.09699654579 -0.00047698801795250935 0.001026998286424997
0.7049192786 -0.09699654579 -0.00047885220033051866 0.0011195426741284545
0.7102407217 -0.09699654579 -0.00048415078338295473 0.0012195963459420494
0.7155621648 -0.09699654579 -0.0004933009599653742 0.0013289612813187103
0.7208836079 -0.09699654579 -0.0005050994376916718 0.0014468475480426688
0.7262051105 -0.09699654579 -0.0005225895083756519 0.0015733536856304584
0.7315265536 -0.09699654579 -0.0005459083596679739 0.0017066670616242533
0.7368479967 -0.09699654579 -0.0005762870750716042 0.0018533374738376384
0.7421694398 -0.09699654579 -0.0006174426740272293 0.0020114562070650105
0.7474909425 -0.09699654579 -0.0006668659532322663 0.002180814869242616
0.7528123856 -0.09699654579 -0.000731129687541777 0.002362249393163241
0.7581338286 -0.09699654579 -0.0008116617147565082 0.002555214197129355
-0.3008363545 -0.09367749095 -0.0006478575121587004 0.00024162377304479766
-0.2955148816 -0.09367749095 -0.000656858959290365 0.00025053661332813187
-0.2901934385 -0.09367749095 -0.0006668959578230125 0.0002575464351854499
-0.2848719656 -0.09367749095 -0.000674099639353411 0.0002639223307077698
-0.2795505226 -0.09367749095 -0.0006832293900113439 0.0002688121427999088
-0.2742290497 -0.09367749095 -0.0006923225614105043 0.0002727253187950183
-0.2689076066 -0.09367749095 -0.0007008679159143156 0.0002766122501342428