VARIABLES = X,Y,phix,phiy
ZONE I=200,J=200,F=POINT 
-0.3008363545 -0.1003156006 0.00038784853627303183 2.386732239166295e-05
-0.2955148816 -0.1003156006 0.0003856388517667444 2.3852787099663825e-05
-0.2901934385 -0.1003156006 0.00038543850197705903 2.3021993420073415e-05
-0.2848719656 -0.1003156006 0.0003852300874008251 2.210018064622793e-05
-0.2795505226 -0.1003156006 0.0003844938095925353 2.07633573991234e-05
-0.2742290497 -0.1003156006 0.0003840049169403887 1.9280141278558925e-05
-0.2689076066 -0.1003156006 0.00038348099395878595 1.6513381703883883e-05
-0.2635861337 -0.1003156006 0.00038845459357187133 1.4430433977908953e-05
-0.2582646906 -0.1003156006 0.0003978109950687859 1.3214325813676996e-05
-0.2529432178 -0.1003156006 0.0004087861197068776 1.2884358532819028e-05
-0.2476217598 -0.1003156006 0.00042206763533818764 1.2875188460874667e-05
-0.2423003018 -0.1003156006 0.0004237940102363898 1.011722009610165e-05
-0.2369788438 -0.1003156006 0.0004167151022667038 5.167699647101721e-06
-0.2316573858 -0.1003156006 0.00040888994399596864 3.2211113984654635e-07
-0.2263359278 -0.1003156006 0.00040010025193061485 -4.499540305554021e-06
-0.2210144699 -0.1003156006 0.00040059584946115686 -4.4095159539474585e-06
-0.2156930119 -0.1003156006 0.0004008424123071497 -4.515989410840999e-06
-0.2103715539 -0.1003156006 0.0004006630578822223 -5.024243558353617e-06
-0.2050500959 -0.1003156006 0.00040710852240777225 -1.0668892767956936e-05
-0.1997286379 -0.1003156006 0.00041462337200237176 -1.692485641227997e-05
-0.19440718 -0.1003156006 0.0004244708504505585 -2.4599862901377186e-05
-0.189085722 -0.1003156006 0.0004304073471316748 -3.681576673813268e-05
-0.183764264 -0.1003156006 0.00043519135682563726 -4.918756640036483e-05
-0.178442806 -0.1003156006 0.0004401652251638731 -6.226688434805399e-05
-0.173121348 -0.1003156006 0.000449943905691723 -6.706959866327786e-05
-0.16779989 -0.1003156006 0.0004602552753127353 -6.973173763534172e-05
-0.1624784321 -0.1003156006 0.00047123949690879485 -7.120722605059996e-05
-0.1571569741 -0.1003156006 0.00047900282525883264 -7.079711085649889e-05
-0.1518355161 -0.1003156006 0.00048462571466690994 -6.825983637065689e-05
-0.1465140581 -0.1003156006 0.0004900617103243043 -6.545443625800035e-05
-0.1411926001 -0.1003156006 0.0004956093198264873 -6.280421584489157e-05
-0.1358711421 -0.1003156006 0.0005007136296802191 -6.0261180699866736e-05
-0.1305496842 -0.1003156006 0.0005058420267307303 -5.771935987910949e-05
-0.1252282262 -0.1003156006 0.0005112591793129356 -5.517194774458675e-05
-0.1199067682 -0.1003156006 0.0005170749365113888 -5.292776458990421e-05
-0.1145853102 -0.1003156006 0.0005229789157143006 -5.0567986339411865e-05
-0.1092638522 -0.1003156006 0.0005291639248968254 -4.8121263068659564e-05
-0.1039423943 -0.1003156006 0.0005352687238496733 -4.585378308241192e-05
-0.09862093627 -0.1003156006 0.0005404687467998971 -4.378932257123152e-05
-0.09329947084 -0.1003156006 0.0005457731904034322 -4.177551961899554e-05
-0.08797801286 -0.1003156006 0.0005510933379506493 -3.9759012747554744e-05
-0.08265655488 -0.1003156006 0.0005564443308933726 -3.782763587046562e-05
-0.0773350969 -0.1003156006 0.0005614997511984398 -3.646339500502999e-05
-0.07201363891 -0.1003156006 0.0005665446475766102 -3.513021355096768e-05
-0.06669218093 -0.1003156006 0.0005715616043351008 -3.379678527964098e-05
-0.06137072667 -0.1003156006 0.0005767928779050425 -3.24567570701413e-05
-0.05604926869 -0.1003156006 0.0005818557475180608 -3.0404647756276293e-05
-0.05072781071 -0.1003156006 0.0005867739473891462 -2.813127754432463e-05
-0.045406349 -0.1003156006 0.0005916331619260436 -2.5922542227819113e-05
-0.04008489102 -0.1003156006 0.0005966205301520419 -2.361159742851785e-05
-0.03476343304 -0.1003156006 0.0006011519704798439 -2.0760269556831342e-05
-0.02944197692 -0.1003156006 0.0006045828227076929 -1.6675243939445628e-05
-0.02412051894 -0.1003156006 0.0006080329548399503 -1.2527114292699486e-05
-0.01879905909 -0.1003156006 0.0006115042592989582 -8.286692760129421e-06
-0.01347760204 -0.1003156006 0.0006149377497415449 -4.147212014361319e-06
-0.00815614406 -0.1003156006 0.0006171235182883511 4.773037175397516e-07
-0.00283468538 -0.1003156006 0.0006182776157230761 5.494976137223487e-06
0.002486772602 -0.1003156006 0.0006194138866561494 1.0618097144057808e-05
0.007808230817 -0.1003156006 0.0006205398611162018 1.5742495950528183e-05
0.0131296888 -0.1003156006 0.0006216897300623761 2.0777201479306005e-05
0.01845114678 -0.1003156006 0.0006224861850305367 2.5534195763868047e-05
0.02377260476 -0.1003156006 0.0006229339521673572 3.009606574972291e-05
0.02909406275 -0.1003156006 0.0006234460856243886 3.468385308639153e-05
0.03441552073 -0.1003156006 0.0006239392934890819 3.927095885985857e-05
0.03973697871 -0.1003156006 0.0006244245015017974 4.383730106916591e-05
0.04505843669 -0.1003156006 0.0006247743441350549 4.8542082658754655e-05
0.05037989467 -0.1003156006 0.0006248264687445555 5.3434792523895255e-05
0.05570135266 -0.1003156006 0.0006249069322816886 5.838361141632112e-05
0.06102281436 -0.1003156006 0.0006249959074920834 6.33518788985697e-05
0.06634426862 -0.1003156006 0.0006250450189240283 6.826408126919635e-05
0.0716657266 -0.1003156006 0.0006250876237694209 7.314335579479982e-05
0.07698718458 -0.1003156006 0.0006235511249058357 7.848811110700569e-05
0.08230864257 -0.1003156006 0.0006218546862379596 8.387859884632089e-05
0.08763010055 -0.1003156006 0.0006201473905730144 8.933842989448156e-05
0.09295155853 -0.1003156006 0.0006184510172709547 9.472403955755269e-05
0.09827301651 -0.1003156006 0.0006167319327557802 0.00010007013602950599
0.1035944745 -0.1003156006 0.0006141872065282798 0.00010543442720901458
0.1089159325 -0.1003156006 0.0006097822596156239 0.00011080916602066906
0.1142373979 -0.1003156006 0.0006054377952062378 0.00011618379037784402
0.1195588559 -0.1003156006 0.0006011132774523426 0.00012135255479449261
0.1248803139 -0.1003156006 0.0005967680411555755 0.00012659335113268582
0.1302017719 -0.1003156006 0.0005924116519108397 0.00013188661114971046
0.1355232298 -0.1003156006 0.0005863760936867193 0.0001362313356896652
0.1408446878 -0.1003156006 0.0005791450350793142 0.00013980700742565716
0.1461661458 -0.1003156006 0.0005720794444242244 0.00014327040368684605
0.1514876038 -0.1003156006 0.0005650280974667229 0.00014673189865130356
0.1568090618 -0.1003156006 0.0005579688747516509 0.0001501947438732274
0.1621305197 -0.1003156006 0.0005508847395253045 0.0001536654418825191
0.1674519777 -0.1003156006 0.0005430263860090396 0.0001550227948809309
0.1727734357 -0.1003156006 0.0005348754485236304 0.00015556420988357275
0.1780948937 -0.1003156006 0.0005266948199646131 0.00015610682383600293
0.1834163517 -0.1003156006 0.0005185274074772015 0.00015664874982763638
0.1887378097 -0.1003156006 0.000510462301094211 0.00015716108236843383
0.1940592676 -0.1003156006 0.0005025014832248482 0.00015764015831514757
0.1993807256 -0.1003156006 0.000494385086998645 0.00015674546868678054
0.2047021836 -0.1003156006 0.0004861501213691628 0.00015541594590390195
0.2100236416 -0.1003156006 0.00047791675070556645 0.0001540951704675396
0.2153450996 -0.1003156006 0.0004698727857826177 0.000152647830604933
0.2206665576 -0.1003156006 0.0004617559117436149 0.00015127403679258925
0.2259880155 -0.1003156006 0.00045363770560789737 0.00014989910590349747
0.2313094735 -0.1003156006 0.00044502382582466073 0.00014667513116380318
0.2366309315 -0.1003156006 0.00043645267534742706 0.00014292274424294196
0.2419523895 -0.1003156006 0.0004279693729720969 0.00013919308292091858
0.2472738475 -0.1003156006 0.0004194293672131589 0.0001354732007640672
0.2525953054 -0.1003156006 0.0004110462314420859 0.0001317705120734162
0.2579167783 -0.1003156006 0.0004028131562116101 0.00012804297257049019
0.2632382214 -0.1003156006 0.00039512359201250097 0.00012200278220672718
0.2685596943 -0.1003156006 0.0003875472841100697 0.0001153247065593746
0.2738811374 -0.1003156006 0.0003798469907496144 0.00010863228376567648
0.2792026103 -0.1003156006 0.00037221184098444 0.00010196169679988475
0.2845240533 -0.1003156006 0.0003648422189782435 9.538766567362516e-05
0.2898455262 -0.1003156006 0.0003574397412019383 8.881253519655528e-05
0.2951669693 -0.1003156006 0.0003515692442702014 8.047207796567248e-05
0.3004884422 -0.1003156006 0.0003458802000621705 7.188183132004283e-05
0.3058098853 -0.1003156006 0.00034052924232159075 6.350531662262857e-05
0.3111313581 -0.1003156006 0.00033517073591630893 5.51278957391919e-05
0.3164528012 -0.1003156006 0.0003297893821886344 4.67511697935351e-05
0.3217742741 -0.1003156006 0.0003244817493640583 3.8340995065327034e-05
0.3270957172 -0.1003156006 0.00032180480513582723 2.8655264404670402e-05
0.3324171901 -0.1003156006 0.0003191984056214965 1.8964388670980827e-05
0.3377386332 -0.1003156006 0.00031662114287367 9.27156685743984e-06
0.343060106 -0.1003156006 0.0003139857178389649 -4.001694448215149e-07
0.3483815491 -0.1003156006 0.00031146793940767237 -9.767255114075086e-06
0.353703022 -0.1003156006 0.0003098799948246537 -1.9063562490015232e-05
0.3590244651 -0.1003156006 0.0003102375844815815 -2.8261899923433752e-05
0.364345938 -0.1003156006 0.00031060381636914384 -3.745356489096886e-05
0.369667381 -0.1003156006 0.00031088139045521975 -4.640325557072536e-05
0.3749888539 -0.1003156006 0.0003111396884700341 -5.540045463278882e-05
0.380310297 -0.1003156006 0.0003114456770397595 -6.442674865518653e-05
0.3856317699 -0.1003156006 0.0003129016956090759 -7.23151888279818e-05
0.390953213 -0.1003156006 0.0003146246516478477 -7.977703688155138e-05
0.3962746859 -0.1003156006 0.0003163287931751393 -8.721636347119436e-05
0.4015961289 -0.1003156006 0.00031810716506330713 -9.466051707845941e-05
0.4069176018 -0.1003156006 0.00031977348812934915 -0.0001020941941485186
0.4122390449 -0.1003156006 0.0003215261395138657 -0.00010924031131991529
0.4175605178 -0.1003156006 0.00032359907103233604 -0.00011600131190676523
0.4228819609 -0.1003156006 0.00032571946255893986 -0.00012281950997489085
0.4282034338 -0.1003156006 0.00032787486101064746 -0.00012964173670804556
0.4335248768 -0.1003156006 0.0003298600874252993 -0.00013628586359478134
0.4388463497 -0.1003156006 0.00033235064956886026 -0.00014285640676083608
0.4441677928 -0.1003156006 0.0003359139032263085 -0.00014910924750030004
0.4494892657 -0.1003156006 0.0003394072786735997 -0.00015529756600235264
0.4548107088 -0.1003156006 0.0003427762833627471 -0.00016125936555309538
0.4601321816 -0.1003156006 0.0003462646337873282 -0.00016736609195817863
0.4654536247 -0.1003156006 0.0003507165076018809 -0.00017278255935577525
0.4707750976 -0.1003156006 0.0003564681453517159 -0.00017691312867974894
0.4760965407 -0.1003156006 0.0003619113446935127 -0.0001808419344995165
0.4814180136 -0.1003156006 0.00036736115764193674 -0.0001847701539669094
0.4867394567 -0.1003156006 0.0003728474437387047 -0.00018874132695470496
0.4920609295 -0.1003156006 0.00037935428249589407 -0.00018994726939376006
0.4973823726 -0.1003156006 0.0003861392028460026 -0.00019033801204704215
0.5027038455 -0.1003156006 0.0003928818384953487 -0.00019074257941456134
0.5080252886 -0.1003156006 0.0003995760437497559 -0.00019112321334125996
0.5133467317 -0.1003156006 0.00040548558647222996 -0.0001896175170871012
0.5186682343 -0.1003156006 0.00041201862551076704 -0.00018569511577600295
0.5239896774 -0.1003156006 0.00041862089866739584 -0.00018175802485183862
0.5293111205 -0.1003156006 0.0004248835865133288 -0.0001778619542682318
0.5346325636 -0.1003156006 0.00043008896756434664 -0.00017228890047843416
0.5399540663 -0.1003156006 0.00043501753770814055 -0.00016406611325597893
0.5452755094 -0.1003156006 0.00044042591050335927 -0.00015568632502715345
0.5505969524 -0.1003156006 0.00044506635714973257 -0.0001476269280261892
0.5559183955 -0.1003156006 0.00044785186039414827 -0.00013668300625398666
0.5612398982 -0.1003156006 0.00045090369259966 -0.00012394764274089454
0.5665613413 -0.1003156006 0.0004538260942880537 -0.00011136532018675217
0.5718827844 -0.1003156006 0.0004549061606474022 -9.783652567860815e-05
0.5772042274 -0.1003156006 0.0004549904235423517 -8.116560931172701e-05
0.5825257301 -0.1003156006 0.0004553155062710679 -6.435366406908134e-05
0.5878471732 -0.1003156006 0.00045330944976274744 -4.6653690409544065e-05
0.5931686163 -0.1003156006 0.00045010249405541655 -2.6160073423076657e-05
0.5984900594 -0.1003156006 0.00044708708626275403 -5.602583291583776e-06
0.6038115621 -0.1003156006 0.0004413103241346992 1.790129242694053e-05
0.6091330051 -0.1003156006 0.0004347330514487746 4.1671665115649685e-05
0.6144544482 -0.1003156006 0.00042699309513958796 6.837289482493542e-05
0.6197758913 -0.1003156006 0.0004164981376101311 9.600416881930327e-05
0.625097394 -0.1003156006 0.0004047868026810453 0.00012539391152848668
0.6304188371 -0.1003156006 0.00039021739770748413 0.00015780667982038775
0.6357402802 -0.1003156006 0.0003729097512068919 0.0001901742306134249
0.6410617828 -0.1003156006 0.0003533920753874383 0.0002262207958954393
0.6463832259 -0.1003156006 0.0003312962555750398 0.0002634954089267565
0.651704669 -0.1003156006 0.00030773105377977366 0.000302741983922373
0.6570261121 -0.1003156006 0.0002786865315667073 0.00034359715951818703
0.6623476148 -0.1003156006 0.00024702067697541385 0.00038766383240073537
0.6676690578 -0.1003156006 0.00021203612936137963 0.00043340214456324033
0.6729905009 -0.1003156006 0.0001705928351263081 0.00048255338439877506
0.678311944 -0.1003156006 0.00012458492174679254 0.0005323537400795048
0.6836334467 -0.1003156006 7.414950277690927e-05 0.0005849394076423331
0.6889548898 -0.1003156006 1.752427174850204e-05 0.0006418318500567859
0.6942763329 -0.1003156006 -4.7068748107602305e-05 0.0006997694847212298
0.6995977759 -0.1003156006 -0.00011817511311213072 0.0007599783240263333
0.7049192786 -0.1003156006 -0.00019625741262184004 0.0008216445625483803
0.7102407217 -0.1003156006 -0.0002833008114951984 0.0008869529858203762
0.7155621648 -0.1003156006 -0.0003822073572576691 0.0009524518184183491
0.7208836079 -0.1003156006 -0.0004916645926730517 0.0010176116127265811
0.7262051105 -0.1003156006 -0.0006113844954823728 0.0010839280497405397
0.7315265536 -0.1003156006 -0.0007457023835245251 0.001149559115641868
0.7368479967 -0.1003156006 -0.0008974052911970172 0.001213898207437965
0.7421694398 -0.1003156006 -0.0010640339216074456 0.001276291700678009
0.7474909425 -0.1003156006 -0.001238743801379042 0.0013288628179801496
0.7528123856 -0.1003156006 -0.0014388857461614096 0.0013785173495894092
0.7581338286 -0.1003156006 -0.0016555631175936098 0.0014213400517994405
-0.3008363545 -0.09699654579 0.000389127037395165 2.174276614112546e-05
-0.2955148816 -0.09699654579 0.0003871422309859934 2.301408264592493e-05
-0.2901934385 -0.09699654579 0.0003837442938223488 2.3033718297721407e-05
-0.2848719656 -0.09699654579 0.0003832460757514354 2.1892744088528534e-05
-0.2795505226 -0.09699654579 0.0003819160127236831 2.0961271033197098e-05
-0.2742290497 -0.09699654579 0.0003809819668861107 1.896983757664712e-05
-0.2689076066 -0.09699654579 0.0003808057373877093 1.574663177024739e-05
-0.2635861337 -0.09699654579 0.00038274998807483814 1.2344025394903364e-05
-0.2582646906 -0.09699654579 0.0003917490125193122 1.0678491281500119e-05
-0.2529432178 -0.09699654579 0.000403999840407111 1.0218432017138959e-05
-0.2476217598 -0.09699654579 0.0004196128320137604 1.1285205185618348e-05
-0.2423003018 -0.09699654579 0.0004288962577386812 1.073547745422941e-05
-0.2369788438 -0.09699654579 0.0004226589222256861 6.271835418836814e-06
-0.2316573858 -0.09699654579 0.00041336325542928057 1.146742003484555e-06
-0.2263359278 -0.09699654579 0.0004016090122562593 -4.361428633251937e-06
-0.2210144699 -0.09699654579 0.0003999527259632559 -5.4317068120083905e-06
-0.2156930119 -0.09699654579 0.0003998532665226089 -6.151667850522543e-06
-0.2103715539 -0.09699654579 0.00039925347332284063 -7.394455646209274e-06
-0.2050500959 -0.09699654579 0.00040532130637161345 -1.3205202259159026e-05
-0.1997286379 -0.09699654579 0.00041529355761476595 -2.0943034940071126e-05
-0.19440718 -0.09699654579 0.00042596721747153164 -2.9405859495697508e-05
-0.189085722 -0.09699654579 0.0004331402440187297 -4.286362431644603e-05
-0.183764264 -0.09699654579 0.00043810790607577905 -5.667317917938777e-05
-0.178442806 -0.09699654579 0.00044209586115362317 -7.137020041159879e-05
-0.173121348 -0.09699654579 0.00045099014192054597 -7.719862058156768e-05
-0.16779989 -0.09699654579 0.00046215247212240683 -7.824511432614426e-05
-0.1624784321 -0.09699654579 0.0004736654753958383 -7.878788131326335e-05
-0.1571569741 -0.09699654579 0.0004819162262857384 -7.692677050802127e-05
-0.1518355161 -0.09699654579 0.0004872751210562678 -7.345656765867516e-05
-0.1465140581 -0.09699654579 0.0004911725526937308 -6.978167746968276e-05
-0.1411926001 -0.09699654579 0.000495487556224911 -6.641652853619368e-05
-0.1358711421 -0.09699654579 0.000500990078873319 -6.38687117771306e-05
-0.1305496842 -0.09699654579 0.000506592578530617 -6.136634275358549e-05
-0.1252282262 -0.09699654579 0.0005121620072708256 -5.88610994633891e-05
-0.1199067682 -0.09699654579 0.0005183990335935924 -5.64716370993378e-05
-0.1145853102 -0.09699654579 0.000524469726633511 -5.407014222761227e-05
-0.1092638522 -0.09699654579 0.0005305984139127573 -5.160626175819486e-05
-0.1039423943 -0.09699654579 0.0005367997673972725 -4.92420660473391e-05
-0.09862093627 -0.09699654579 0.0005419044455586925 -4.7236635109293735e-05
-0.09329947084 -0.09699654579 0.0005470430264855987 -4.520202047474427e-05
-0.08797801286 -0.09699654579 0.000552250230014561 -4.315209333556371e-05
-0.08265655488 -0.09699654579 0.0005574416950730119 -4.122559765066692e-05
-0.0773350969 -0.09699654579 0.0005627292316300352 -3.987429695832833e-05
-0.07201363891 -0.09699654579 0.0005681213431515985 -3.854487012561301e-05
-0.06669218093 -0.09699654579 0.0005735097227707864 -3.722084157650734e-05
-0.06137072667 -0.09699654579 0.0005786971857064494 -3.5885995771796575e-05
-0.05604926869 -0.09699654579 0.0005838109076725199 -3.369467561161971e-05
-0.05072781071 -0.09699654579 0.0005887081724796893 -3.130695631649244e-05
-0.045406349 -0.09699654579 0.0005936066131551242 -2.8920051390516694e-05
-0.04008489102 -0.09699654579 0.0005985673525214463 -2.6479153114418583e-05
-0.03476343304 -0.09699654579 0.0006030997697690545 -2.3405812932074233e-05
-0.02944197692 -0.09699654579 0.0006064223048953966 -1.895295029678992e-05
-0.02412051894 -0.09699654579 0.0006097377079507007 -1.4535829874586702e-05
-0.01879905909 -0.09699654579 0.0006130524184354572 -1.0086602206540309e-05
-0.01347760204 -0.09699654579 0.0006163572861565504 -5.567553221933699e-06
-0.00815614406 -0.09699654579 0.0006184185637665609 -6.727041697968116e-07
-0.00283468538 -0.09699654579 0.0006194359841287879 4.5280519675087685e-06
0.002486772602 -0.09699654579 0.0006204434643574766 9.763239114531828e-06
0.007808230817 -0.09699654579 0.0006214570728207362 1.5009338578442736e-05
0.0131296888 -0.09699654579 0.0006224820496384605 2.0223818969483764e-05
0.01845114678 -0.09699654579 0.0006232492307539823 2.508831910248726e-05
0.02377260476 -0.09699654579 0.0006237711693236491 2.9702897898773977e-05
0.02909406275 -0.09699654579 0.0006243270630561764 3.432830865780124e-05
0.03441552073 -0.09699654579 0.0006248972382633627 3.895607921157121e-05
0.03973697871 -0.09699654579 0.000625405263337042 4.3568733185627106e-05
0.04505843669 -0.09699654579 0.0006258430424430322 4.837630012454308e-05
0.05037989467 -0.09699654579 0.0006260544463539302 5.34374993057338e-05
0.05570135266 -0.09699654579 0.000626246463377656 5.850679113635772e-05
0.06102281436 -0.09699654579 0.0006264617912583801 6.36250062624067e-05
0.06634426862 -0.09699654579 0.0006266532504770523 6.867289224939889e-05
0.0716657266 -0.09699654579 0.0006268513810492564 7.372092892468972e-05
0.07698718458 -0.09699654579 0.0006254194255970779 7.932477041454186e-05
0.08230864257 -0.09699654579 0.0006238582525617579 8.496930540924521e-05
0.08763010055 -0.09699654579 0.0006222653048698975 9.05869968953429e-05
0.09295155853 -0.09699654579 0.000620777229879975 9.615061984875394e-05
0.09827301651 -0.09699654579 0.0006192080560274872 0.00010175372644780631
0.1035944745 -0.09699654579 0.0006167300772056193 0.00010741172877509567
0.1089159325 -0.09699654579 0.00061241697255094 0.00011314158788344335
0.1142373979 -0.09699654579 0.0006081351528279177 0.00011873823274585652
0.1195588559 -0.09699654579 0.0006039205469518553 0.00012424295872226346
0.1248803139 -0.09699654579 0.0005996809490361437 0.0001297462726755246
0.1302017719 -0.09699654579 0.0005954231287063109 0.00013532682261909335
0.1355232298 -0.09699654579 0.0005892603551834065 0.0001399165911757766
0.1408446878 -0.09699654579 0.0005820696613268654 0.00014361098323548185
0.1461661458 -0.09699654579 0.0005748599810136376 0.00014732818108110623
0.1514876038 -0.09699654579 0.0005674224252974461 0.0001510415809272011
0.1568090618 -0.09699654579 0.0005599741343969743 0.00015475978451248156
0.1621305197 -0.09699654579 0.0005526530065107489 0.000158385581287066
0.1674519777 -0.09699654579 0.0005447023117362585 0.00015976204337464424
0.1727734357 -0.09699654579 0.0005364806855782692 0.00016031849796760143
0.1780948937 -0.09699654579 0.000528130239308668 0.00016093938245536748
0.1834163517 -0.09699654579 0.0005198300825751799 0.0001615249101478182
0.1887378097 -0.09699654579 0.0005117277506859682 0.00016209171027604038
0.1940592676 -0.09699654579 0.0005036498294894954 0.0001626589205712547
0.1993807256 -0.09699654579 0.0004954408920672654 0.00016183857506738445
0.2047021836 -0.09699654579 0.000487166132756279 0.00016065360038882353
0.2100236416 -0.09699654579 0.00047907679782474756 0.00015936375101919316
0.2153450996 -0.09699654579 0.00047097762922082375 0.00015808332579564732
0.2206665576 -0.09699654579 0.00046290799633741945 0.0001568012647043847
0.2259880155 -0.09699654579 0.00045481993826211896 0.0001554930653104219
0.2313094735 -0.09699654579 0.0004460737261756086 0.00015219028291631819
0.2366309315 -0.09699654579 0.00043716704152083215 0.00014839211456128639
0.2419523895 -0.09699654579 0.00042826662120120084 0.00014459224090158777
0.2472738475 -0.09699654579 0.0004193407186183977 0.00014079377508654812
0.2525953054 -0.09699654579 0.0004106091591548403 0.00013701027358292326
0.2579167783 -0.09699654579 0.00040198769108908204 0.00013326282308502945
0.2632382214 -0.09699654579 0.0003937759413401498 0.00012692113688854247
0.2685596943 -0.09699654579 0.00038567364409360414 0.00012003437032561461
0.2738811374 -0.09699654579 0.00037766718049913163 0.00011324005862897186
0.2792026103 -0.09699654579 0.00036981862521878457 0.00010655006278760262
0.2845240533 -0.09699654579 0.00036196153963594926 9.984079643616106e-05
0.2898455262 -0.09699654579 0.0003540092415012035 9.308349604925495e-05
0.2951669693 -0.09699654579 0.0003476900116569052 8.45075376336103e-05
0.3004884422 -0.09699654579 0.00034170763683655914 7.57826420028195e-05
0.3058098853 -0.09699654579 0.0003359093827382908 6.706188286227229e-05
0.3111313581 -0.09699654579 0.0003301095353036496 5.834084426870639e-05
0.3164528012 -0.09699654579 0.00032439981290437474 4.9712657974056154e-05
0.3217742741 -0.09699654579 0.00031903436600861046 4.113687096390739e-05
0.3270957172 -0.09699654579 0.0003160503613659617 3.1037756303197174e-05
0.3324171901 -0.09699654579 0.0003130674570500806 2.0942027717719904e-05
0.3377386332 -0.09699654579 0.00031007400065773653 1.0976928293044014e-05
0.343060106 -0.09699654579 0.00030720276197358613 1.1372155035139263e-06
0.3483815491 -0.09699654579 0.00030434056816704087 -8.719354984986207e-06
0.353703022 -0.09699654579 0.00030254338045324384 -1.851608427894352e-05
0.3590244651 -0.09699654579 0.0003028346008761864 -2.802998242501478e-05
0.364345938 -0.09699654579 0.0003030660135532509 -3.736066206482259e-05
0.369667381 -0.09699654579 0.0003033374045119211 -4.66846940348282e-05
0.3749888539 -0.09699654579 0.00030381280033157384 -5.6022121996171e-05
0.380310297 -0.09699654579 0.0003041333705600713 -6.521771848878878e-05
0.3856317699 -0.09699654579 0.00030567458333132614 -7.306673684851585e-05
0.390953213 -0.09699654579 0.0003075369251841043 -8.060305466961396e-05
0.3962746859 -0.09699654579 0.0003094654370391093 -8.81518412267402e-05
0.4015961289 -0.09699654579 0.0003113028391861315 -9.566004895297366e-05
0.4069176018 -0.09699654579 0.00031305070855919205 -0.00010313263181449779
0.4122390449 -0.09699654579 0.00031500133185013426 -0.00011039290544696961
0.4175605178 -0.09699654579 0.00031713042727009056 -0.00011733868806520847
0.4228819609 -0.09699654579 0.0003193042482629874 -0.00012417531330148702
0.4282034338 -0.09699654579 0.00032144870240491223 -0.00013097778387276317
0.4335248768 -0.09699654579 0.00032362564319161403 -0.0001378128792747808
0.4388463497 -0.09699654579 0.000326232231421575 -0.00014461889809689574
0.4441677928 -0.09699654579 0.00032997700983620944 -0.00015109638292453228
0.4494892657 -0.09699654579 0.0003337509645945288 -0.00015753552987919322
0.4548107088 -0.09699654579 0.0003374328674169642 -0.00016398116453878947
0.4601321816 -0.09699654579 0.00034104539117997535 -0.00017036120672890142
0.4654536247 -0.09699654579 0.0003455722489173812 -0.0001757336357591531
0.4707750976 -0.09699654579 0.00035159563327164607 -0.0001800461071322324
0.4760965407 -0.09699654579 0.0003579283446573799 -0.00018450888700199256
0.4814180136 -0.09699654579 0.00036396627675834597 -0.0001888126249132513
0.4867394567 -0.09699654579 0.0003697497804111841 -0.00019294706123588914
0.4920609295 -0.09699654579 0.00037695949899958856 -0.00019420357525296627
0.4973823726 -0.09699654579 0.00038453954821341893 -0.0001946672043880211
0.5027038455 -0.09699654579 0.00039156682914676344 -0.00019500946990738135
0.5080252886 -0.09699654579 0.0003988950258818457 -0.0001954273859316233
0.5133467317 -0.09699654579 0.0004062840611777547 -0.00019380067802148208
0.5186682343 -0.09699654579 0.0004135300358049072 -0.00018968403464219622
0.5239896774 -0.09699654579 0.0004201295652662015 -0.00018568319920058825
0.5293111205 -0.09699654579 0.00042698412699972567 -0.00018160874529809704
0.5346325636 -0.09699654579 0.00043386189892275997 -0.00017554641453665154
0.5399540663 -0.09699654579 0.00043942203004507485 -0.00016699556237976024
0.5452755094 -0.09699654579 0.0004447647512949518 -0.000158581784868917
0.5505969524 -0.09699654579 0.00045034775983111684 -0.0001500238281315703
0.5559183955 -0.09699654579 0.00045471001136343216 -0.00013811228102030454
0.5612398982 -0.09699654579 0.00045792455162959505 -0.00012539199636520194
0.5665613413 -0.09699654579 0.00046114948022038174 -0.00011267469045822836
0.5718827844 -0.09699654579 0.0004641383456447242 -9.783249125201963e-05
0.5772042274 -0.09699654579 0.0004645997511269623 -8.094046593000085e-05
0.5825257301 -0.09699654579 0.0004650684104021015 -6.404509735844723e-05
0.5878471732 -0.09699654579 0.0004652559240399637 -4.50447492747738e-05
0.5931686163 -0.09699654579 0.0004626263835882087 -2.418086219661182e-05
0.5984900594 -0.09699654579 0.0004603836194857315 -2.702807570017823e-06
0.6038115621 -0.09699654579 0.0004557599913788383 2.1217497073707245e-05
0.6091330051 -0.09699654579 0.0004499232113240242 4.6928043609270406e-05
0.6144544482 -0.09699654579 0.0004429461392344407 7.327377915147723e-05
0.6197758913 -0.09699654579 0.0004332900416211392 0.00010304804079064067
0.625097394 -0.09699654579 0.0004224365862522959 0.000133043922960244
0.6304188371 -0.09699654579 0.000408484717829658 0.0001667112920748264
0.6357402802 -0.09699654579 0.0003942188060593977 0.0002019635939882476
0.6410617828 -0.09699654579 0.00037605430681186895 0.0002378019073128867
0.6463832259 -0.09699654579 0.0003557885828158218 0.00027749331181567676
0.651704669 -0.09699654579 0.0003328013161677338 0.00031856767549629157
0.6570261121 -0.09699654579 0.0003048297870358672 0.0003625340678438331
0.6623476148 -0.09699654579 0.00027393588693261904 0.0004079041857703262
0.6676690578 -0.09699654579 0.00023953539861163773 0.00045733916481340134
0.6729905009 -0.09699654579 0.00020031580440867735 0.000508309032994348
0.678311944 -0.09699654579 0.00015719968528138387 0.0005625850476970148
0.6836334467 -0.09699654579 0.00010945292962210248 0.0006188903832813091
0.6889548898 -0.09699654579 5.396897913795193e-05 0.0006776757008644614
0.6942763329 -0.09699654579 -8.212191711659987e-06 0.0007401877886622532
0.6995977759 -0.09699654579 -7.687884672020669e-05 0.0008066176089429857
0.7049192786 -0.09699654579 -0.00015386165837371073 0.0008737041032136805
0.7102407217 -0.09699654579 -0.00024076756377347297 0.0009432647080960891
0.7155621648 -0.09699654579 -0.00033973479938012824 0.0010151354173828
0.7208836079 -0.09699654579 -0.00044919509054038286 0.0010906106350097862
0.7262051105 -0.09699654579 -0.0005714509111798449 0.001165727805796775
0.7315265536 -0.09699654579 -0.0007039693730171695 0.0012381427178823844
0.7368479967 -0.09699654579 -0.0008545371514261443 0.001313005768234487
0.7421694398 -0.09699654579 -0.0010221562866064302 0.0013829721707708412
0.7474909425 -0.09699654579 -0.0012056051100558713 0.0014513166983354047
0.7528123856 -0.09699654579 -0.001407785490201813 0.0015108297906417047
0.7581338286 -0.09699654579 -0.0016300861142326212 0.001561482659386765
-0.3008363545 -0.09367749095 0.00039071870187313965 2.0091911321725072e-05
-0.2955148816 -0.09367749095 0.00038866282078277276 2.156137232062941e-05
-0.2901934385 -0.09367749095 0.00038404486679647395 2.2738792132612306e-05
-0.2848719656 -0.09367749095 0.0003803241712343372 2.2351281765717756e-05
-0.2795505226 -0.09367749095 0.0003793033174813921 2.0987025633250003e-05
-0.2742290497 -0.09367749095 0.0003777707964022908 1.8760775992275737e-05
-0.2689076066 -0.09367749095 0.00037699313122950594 1.5543041216340786e-05
-0.2635861337 -0.09367749095 0.000378202474822553 1.0530872924034071e-05
-0.2582646906 -0.09367749095 0.00038684101457460554 7.993473370550118e-06
-0.2529432178 -0.09367749095 0.00039934280997586173 7.491908945245412e-06