VARIABLES = X,Y,phix,phiy
ZONE I=200,J=200,F=POINT 
-0.3008363545 -0.1003156006 0.0001677636780375688 -0.001956385146020054
-0.2955148816 -0.1003156006 0.00016725740198782096 -0.00189595330253654
-0.2901934385 -0.1003156006 0.00015733576540463552 -0.0018346308730179555
-0.2848719656 -0.1003156006 0.00014619612317204602 -0.0017728382376735175
-0.2795505226 -0.1003156006 0.0001304459281895763 -0.0017080163436989917
-0.2742290497 -0.1003156006 0.00011017580947006716 -0.0016400075927717698
-0.2689076066 -0.1003156006 8.689702903498066e-05 -0.0015703180382494247
-0.2635861337 -0.1003156006 7.53728369532192e-05 -0.0015045416446931245
-0.2582646906 -0.1003156006 6.904769474252148e-05 -0.001433573159439828
-0.2529432178 -0.1003156006 6.395570859384596e-05 -0.0013592446688411384
-0.2476217598 -0.1003156006 5.992691986120791e-05 -0.0012833687887832078
-0.2423003018 -0.1003156006 3.30694876411169e-05 -0.0012175962329857733
-0.2369788438 -0.1003156006 -1.0137926531244022e-05 -0.00115836262708047
-0.2316573858 -0.1003156006 -5.7829499577959186e-05 -0.001099574468435795
-0.2263359278 -0.1003156006 -0.0001094457379550519 -0.0010433141526652004
-0.2210144699 -0.1003156006 -0.00015737073754229017 -0.0009876670939278976
-0.2156930119 -0.1003156006 -0.0002070789691199361 -0.0009302635199730177
-0.2103715539 -0.1003156006 -0.0002598733967905455 -0.0008716216518464237
-0.2050500959 -0.1003156006 -0.0002941108869428464 -0.0008183194601194649
-0.1997286379 -0.1003156006 -0.0003268593107462462 -0.0007633039833159531
-0.19440718 -0.1003156006 -0.00035860074335422403 -0.0007071666273257651
-0.189085722 -0.1003156006 -0.00041704477727937285 -0.000662834679025554
-0.183764264 -0.1003156006 -0.00048121399992428967 -0.0006189913238794551
-0.178442806 -0.1003156006 -0.0005458867304536656 -0.0005759415317438637
-0.173121348 -0.1003156006 -0.0006021590692187036 -0.0005405521623509443
-0.16779989 -0.1003156006 -0.0006556772227501992 -0.0005058590195478856
-0.1624784321 -0.1003156006 -0.0007084649198948134 -0.0004707539347110815
-0.1571569741 -0.1003156006 -0.0007633452592522835 -0.0004395362341789181
-0.1518355161 -0.1003156006 -0.0008209200963516867 -0.0004087868891255975
-0.1465140581 -0.1003156006 -0.0008793634335389777 -0.00037758664736636826
-0.1411926001 -0.1003156006 -0.0009381095916723873 -0.00034807161309507393
-0.1358711421 -0.1003156006 -0.0009980737336645685 -0.00032179281198578856
-0.1305496842 -0.1003156006 -0.0010579800741366105 -0.00029551277101946426
-0.1252282262 -0.1003156006 -0.0011187818498801373 -0.0002692101136857026
-0.1199067682 -0.1003156006 -0.0011774590002788198 -0.00024914844003991356
-0.1145853102 -0.1003156006 -0.0012355403074328052 -0.00023056018992203856
-0.1092638522 -0.1003156006 -0.0012940070917955965 -0.00021240770517173845
-0.1039423943 -0.1003156006 -0.0013521968897969407 -0.00019478221936047657
-0.09862093627 -0.1003156006 -0.001407738640195782 -0.0001838234867638656
-0.09329947084 -0.1003156006 -0.0014639063639798118 -0.00017307863009407136
-0.08797801286 -0.1003156006 -0.0015201304241417566 -0.00016233083430449618
-0.08265655488 -0.1003156006 -0.0015761677773705489 -0.00015203726896652697
-0.0773350969 -0.1003156006 -0.0016293521583429155 -0.0001487801489001045
-0.07201363891 -0.1003156006 -0.0016825624945542418 -0.00014552418369651895
-0.06669218093 -0.1003156006 -0.001735775184576744 -0.00014226699618470953
-0.06137072667 -0.1003156006 -0.0017893818085158854 -0.00013951382450083598
-0.05604926869 -0.1003156006 -0.001838218002697889 -0.00013984447715776935
-0.05072781071 -0.1003156006 -0.0018859518222053887 -0.0001406983437432765
-0.045406349 -0.1003156006 -0.0019335567138022828 -0.00014146287228551812
-0.04008489102 -0.1003156006 -0.0019814509872174628 -0.0001424650927151647
-0.03476343304 -0.1003156006 -0.0020286592248234614 -0.0001437312060905363
-0.02944197692 -0.1003156006 -0.002074812716142205 -0.00014526291018056658
-0.02412051894 -0.1003156006 -0.002121080256088271 -0.00014686236361446497
-0.01879905909 -0.1003156006 -0.0021674972421073433 -0.00014851468969648266
-0.01347760204 -0.1003156006 -0.002213760609874747 -0.00015010492479418456
-0.00815614406 -0.1003156006 -0.0022584015984126087 -0.00015402963205355218
-0.00283468538 -0.1003156006 -0.0023018203890182772 -0.00015965288781394943
0.002486772602 -0.1003156006 -0.0023456130297563947 -0.00016562833711108635
0.007808230817 -0.1003156006 -0.0023893551766224794 -0.000171623884145006
0.0131296888 -0.1003156006 -0.002432872248686901 -0.0001772991988894333
0.01845114678 -0.1003156006 -0.0024742112914217847 -0.0001847287124814141
0.02377260476 -0.1003156006 -0.0025140884747325743 -0.00019343513992756362
0.02909406275 -0.1003156006 -0.0025540095044034403 -0.000202299938041174
0.03441552073 -0.1003156006 -0.0025939686944999943 -0.0002111647343913251
0.03973697871 -0.1003156006 -0.002633856126048666 -0.00021989138652234598
0.04505843669 -0.1003156006 -0.0026713848118965463 -0.00023005792503671155
0.05037989467 -0.1003156006 -0.0027069955179173256 -0.0002421798059888231
0.05570135266 -0.1003156006 -0.0027427941011788676 -0.00025444743037387444
0.06102281436 -0.1003156006 -0.0027785679925220025 -0.0002666455469365089
0.06634426862 -0.1003156006 -0.0028142417096972436 -0.0002787844852157807
0.0716657266 -0.1003156006 -0.002849773289103965 -0.0002908781493549638
0.07698718458 -0.1003156006 -0.0028867554428726005 -0.0003067792747269982
0.08230864257 -0.1003156006 -0.0029238517612662704 -0.0003229587151214006
0.08763010055 -0.1003156006 -0.0029614412776460945 -0.00033924961655043605
0.09295155853 -0.1003156006 -0.002998567778012002 -0.0003554565318750961
0.09827301651 -0.1003156006 -0.003035385846167922 -0.00037160379901422807
0.1035944745 -0.1003156006 -0.003068159023113624 -0.00039206405458355173
0.1089159325 -0.1003156006 -0.003093418038445624 -0.0004211606981698547
0.1142373979 -0.1003156006 -0.003118691752707059 -0.0004502561584430817
0.1195588559 -0.1003156006 -0.0031434680821664303 -0.0004779499376346087
0.1248803139 -0.1003156006 -0.003168443716822011 -0.0005061889950506239
0.1302017719 -0.1003156006 -0.0031934873420240823 -0.0005346956240876427
0.1355232298 -0.1003156006 -0.003205014848570879 -0.0005606649230599948
0.1408446878 -0.1003156006 -0.003207013382087582 -0.0005843243749529088
0.1461661458 -0.1003156006 -0.0032099601252060504 -0.0006070181636271381
0.1514876038 -0.1003156006 -0.003212904486214499 -0.0006297093884449463
0.1568090618 -0.1003156006 -0.003215820946492874 -0.0006524036492963968
0.1621305197 -0.1003156006 -0.0032187911389520286 -0.0006750933421877521
0.1674519777 -0.1003156006 -0.0032192262078625552 -0.0006822633277208076
0.1727734357 -0.1003156006 -0.0032185663238210845 -0.0006828638680560639
0.1780948937 -0.1003156006 -0.0032178621640707107 -0.0006834653961079379
0.1834163517 -0.1003156006 -0.00321717692375397 -0.0006840651115821593
0.1887378097 -0.1003156006 -0.0032169307575085214 -0.0006849263419958975
0.1940592676 -0.1003156006 -0.0032175429299558427 -0.0006863135346501927
0.1993807256 -0.1003156006 -0.003227695377836606 -0.0006854608600218673
0.2047021836 -0.1003156006 -0.0032409144974458086 -0.0006838904296883521
0.2100236416 -0.1003156006 -0.0032541472154111236 -0.0006822712644482563
0.2153450996 -0.1003156006 -0.0032671600397723467 -0.00068139601509815
0.2206665576 -0.1003156006 -0.0032801951165266955 -0.000680258687762256
0.2259880155 -0.1003156006 -0.0032932616395092776 -0.0006791279311378939
0.2313094735 -0.1003156006 -0.0033092842510815935 -0.0006832433209977095
0.2366309315 -0.1003156006 -0.0033255110147582144 -0.0006886670619767402
0.2419523895 -0.1003156006 -0.003341357792302327 -0.0006939924977409031
0.2472738475 -0.1003156006 -0.0033571729263742176 -0.000699318796669102
0.2525953054 -0.1003156006 -0.0033730802016231766 -0.0007045958993573121
0.2579167783 -0.1003156006 -0.0033885767721517695 -0.0007097631324659804
0.2632382214 -0.1003156006 -0.003395842369891256 -0.000720172875316385
0.2685596943 -0.1003156006 -0.003401265225347844 -0.0007321658427313566
0.2738811374 -0.1003156006 -0.0034066582458438443 -0.0007447084424931909
0.2792026103 -0.1003156006 -0.0034120947385562093 -0.0007568228013597202
0.2845240533 -0.1003156006 -0.0034174335383526035 -0.0007674864358686927
0.2898455262 -0.1003156006 -0.0034228461315249227 -0.0007781524476853258
0.2951669693 -0.1003156006 -0.0034119862911922254 -0.0007793257631931723
0.3004884422 -0.1003156006 -0.0033989494481320897 -0.0007789207660045998
0.3058098853 -0.1003156006 -0.0033884247091231414 -0.0007777745828093258
0.3111313581 -0.1003156006 -0.003377964414735809 -0.000776626718109905
0.3164528012 -0.1003156006 -0.003367496746660202 -0.0007754831614327897
0.3217742741 -0.1003156006 -0.0033570473572970927 -0.0007739333950946816
0.3270957172 -0.1003156006 -0.003354989003407208 -0.0007493089175161225
0.3324171901 -0.1003156006 -0.0033529737635178787 -0.0007247002504650681
0.3377386332 -0.1003156006 -0.003350983587326432 -0.0007000933877451598
0.343060106 -0.1003156006 -0.0033489758284720216 -0.0006754819997595655
0.3483815491 -0.1003156006 -0.0033482619468378225 -0.0006531769856635332
0.353703022 -0.1003156006 -0.003354633314153836 -0.0006324232990658664
0.3590244651 -0.1003156006 -0.00337664459964719 -0.0006148245890278494
0.364345938 -0.1003156006 -0.0033986533838001555 -0.0005972155544965978
0.369667381 -0.1003156006 -0.0034189673591635784 -0.0005805182348993592
0.3749888539 -0.1003156006 -0.003439648050605687 -0.0005635647155976303
0.380310297 -0.1003156006 -0.00346055083246634 -0.0005465572116502645
0.3856317699 -0.1003156006 -0.0034796727517920584 -0.000541116988895429
0.390953213 -0.1003156006 -0.0034973597616736515 -0.0005381607733234967
0.3962746859 -0.1003156006 -0.0035150099975023376 -0.0005351154322281697
0.4015961289 -0.1003156006 -0.003532673358972135 -0.0005320888431446176
0.4069176018 -0.1003156006 -0.0035504770652959026 -0.0005289999588728039
0.4122390449 -0.1003156006 -0.003564008316246744 -0.0005241611094424121
0.4175605178 -0.1003156006 -0.003571926868773271 -0.000518120514754935
0.4228819609 -0.1003156006 -0.0035795211365870047 -0.0005122533988858056
0.4282034338 -0.1003156006 -0.003587225236054254 -0.0005062922529672638
0.4335248768 -0.1003156006 -0.003595596555274501 -0.0005001233544906409
0.4388463497 -0.1003156006 -0.0036042053647909835 -0.00049307284301008
0.4441677928 -0.1003156006 -0.0036133397210872365 -0.0004832673353511535
0.4494892657 -0.1003156006 -0.003622550052118805 -0.0004735129995984476
0.4548107088 -0.1003156006 -0.0036318887194202428 -0.00046408356857650034
0.4601321816 -0.1003156006 -0.003641040308647224 -0.0004544894936196695
0.4654536247 -0.1003156006 -0.0036514795563236126 -0.0004464955421900347
0.4707750976 -0.1003156006 -0.0036635326303455186 -0.0004407291888721391
0.4760965407 -0.1003156006 -0.0036747212771488422 -0.00043466565037447627
0.4814180136 -0.1003156006 -0.003685942025289452 -0.00042860962515427404
0.4867394567 -0.1003156006 -0.0036972128391155974 -0.0004225451872553751
0.4920609295 -0.1003156006 -0.0037042690885926554 -0.0004204560081912298
0.4973823726 -0.1003156006 -0.003709771045820601 -0.0004191254037140729
0.5027038455 -0.1003156006 -0.003715320945297463 -0.0004177569165740436
0.5080252886 -0.1003156006 -0.0037208848061292274 -0.00041639864572895154
0.5133467317 -0.1003156006 -0.0037223837613067803 -0.000413437304942795
0.5186682343 -0.1003156006 -0.0037184000870883398 -0.00041101984048839247
0.5239896774 -0.1003156006 -0.0037143208611248933 -0.0004087088235644337
0.5293111205 -0.1003156006 -0.0037105676580699684 -0.00040598650375102543
0.5346325636 -0.1003156006 -0.003704601208584191 -0.0004006082591957642
0.5399540663 -0.1003156006 -0.0036942954271130214 -0.00039368918248208653
0.5452755094 -0.1003156006 -0.0036834773486194928 -0.00038722009035822066
0.5505969524 -0.1003156006 -0.003673618022861212 -0.000379876059639336
0.5559183955 -0.1003156006 -0.0036606210059312535 -0.0003690522815072272
0.5612398982 -0.1003156006 -0.0036445240102236025 -0.00035805240382164895
0.5665613413 -0.1003156006 -0.0036287279201257655 -0.00034688987587395677
0.5718827844 -0.1003156006 -0.0036122758011535574 -0.0003330346414089098
0.5772042274 -0.1003156006 -0.003591078736228718 -0.00031751439067340766
0.5825257301 -0.1003156006 -0.003569635866916256 -0.00030210205395413885
0.5878471732 -0.1003156006 -0.0035473185357904383 -0.00028366624203906947
0.5931686163 -0.1003156006 -0.003521218508110205 -0.00026266426269987896
0.5984900594 -0.1003156006 -0.003495418556548267 -0.00024238561902939322
0.6038115621 -0.1003156006 -0.0034648401438308707 -0.00021787502100250184
0.6091330051 -0.1003156006 -0.0034341255617534464 -0.00019200266443579573
0.6144544482 -0.1003156006 -0.0033988301502614095 -0.0001637495145478274
0.6197758913 -0.1003156006 -0.003362280908030355 -0.00013185034702836064
0.625097394 -0.1003156006 -0.003323426901867849 -9.731267394536737e-05
0.6304188371 -0.1003156006 -0.0032791564474335903 -5.812329149698813e-05
0.6357402802 -0.1003156006 -0.0032355883978835175 -1.5232362165286073e-05
0.6410617828 -0.1003156006 -0.0031883136668598407 3.1339196634484634e-05
0.6463832259 -0.1003156006 -0.0031382407716919894 8.198607532419027e-05
0.651704669 -0.1003156006 -0.003085615697863592 0.00013561756318049913
0.6570261121 -0.1003156006 -0.003031515527211964 0.00019733620778528127
0.6623476148 -0.1003156006 -0.0029740900189219746 0.00026379062949169235
0.6676690578 -0.1003156006 -0.002914350060594707 0.0003349521997101078
0.6729905009 -0.1003156006 -0.0028521799838995892 0.00041592544836629314
0.678311944 -0.1003156006 -0.002789601788413869 0.0005027039905617184
0.6836334467 -0.1003156006 -0.0027243961401499477 0.0005957553178985951
0.6889548898 -0.1003156006 -0.0026573091866953936 0.0006968763508840912
0.6942763329 -0.1003156006 -0.002588552607544979 0.0008085800114204087
0.6995977759 -0.1003156006 -0.0025184442982826402 0.0009278785708408495
0.7049192786 -0.1003156006 -0.0024484314205386846 0.001055162963895328
0.7102407217 -0.1003156006 -0.0023775281115647113 0.0011925770738926127
0.7155621648 -0.1003156006 -0.0023067429375655014 0.0013421038896342522
0.7208836079 -0.1003156006 -0.0022374919614296224 0.0015026037880463046
0.7262051105 -0.1003156006 -0.0021688485506316476 0.001673780009572211
0.7315265536 -0.1003156006 -0.0021014018385733394 0.001857375274353165
0.7368479967 -0.1003156006 -0.0020362277570816797 0.0020587984111181245
0.7421694398 -0.1003156006 -0.0019723049088677586 0.0022732589359571545
0.7474909425 -0.1003156006 -0.0019170639427100692 0.0024967094752664067
0.7528123856 -0.1003156006 -0.0018630726471566342 0.0027410252070325354
0.7581338286 -0.1003156006 -0.0018145764555972293 0.003001358308972948
-0.3008363545 -0.09699654579 0.00020166072457254098 -0.0019578338017917753
-0.2955148816 -0.09699654579 0.00020636947582810595 -0.0018951883063661927
-0.2901934385 -0.09699654579 0.0001991250160788852 -0.00183278325045012
-0.2848719656 -0.09699654579 0.00018604352977620182 -0.0017699366563268919
-0.2795505226 -0.09699654579 0.00017154617367351102 -0.0017035741176981885
-0.2742290497 -0.09699654579 0.0001520441447480795 -0.0016356691694966556
-0.2689076066 -0.09699654579 0.0001263449361526163 -0.0015645704303573634
-0.2635861337 -0.09699654579 0.00010294386254736408 -0.0014922156682243735
-0.2582646906 -0.09699654579 9.661868483689828e-05 -0.0014206688997085793
-0.2529432178 -0.09699654579 9.151165463156444e-05 -0.0013454182465698595
-0.2476217598 -0.09699654579 8.947759364328007e-05 -0.0012672321181884255
-0.2423003018 -0.09699654579 7.374332922208562e-05 -0.0011937228064804327
-0.2369788438 -0.09699654579 2.888677486547376e-05 -0.001133348211177191
-0.2316573858 -0.09699654579 -2.144664087495263e-05 -0.0010757250507876495
-0.2263359278 -0.09699654579 -7.672234470218569e-05 -0.0010177385455602574
-0.2210144699 -0.09699654579 -0.00012754798839567408 -0.000961002547791707
-0.2156930119 -0.09699654579 -0.00018033774357085707 -0.0009029721901710853
-0.2103715539 -0.09699654579 -0.0002346705119779411 -0.0008438208171924779
-0.2050500959 -0.09699654579 -0.0002733857519246023 -0.0007880685802511728
-0.1997286379 -0.09699654579 -0.0003050541271458903 -0.0007318981375694711
-0.19440718 -0.09699654579 -0.00033617506754032205 -0.0006756986042845492
-0.189085722 -0.09699654579 -0.00039362421068187404 -0.0006293684996901801
-0.183764264 -0.09699654579 -0.00045862188166836883 -0.000587267247084794
-0.178442806 -0.09699654579 -0.0005276119378227435 -0.0005474573558718673
-0.173121348 -0.09699654579 -0.0005851627119054826 -0.0005114957869714759
-0.16779989 -0.09699654579 -0.000638051608900876 -0.00047629866713132056
-0.1624784321 -0.09699654579 -0.0006899768826856773 -0.0004402023565948434
-0.1571569741 -0.09699654579 -0.0007454453556922263 -0.00040726343116647795
-0.1518355161 -0.09699654579 -0.0008048382664467802 -0.0003748637412856696
-0.1465140581 -0.09699654579 -0.0008663614637465589 -0.00034174757888176977
-0.1411926001 -0.09699654579 -0.0009280920699499083 -0.00031045877512550496
-0.1358711421 -0.09699654579 -0.0009891217751643445 -0.00028417629104534735
-0.1305496842 -0.09699654579 -0.0010508912210345706 -0.000257948347523276
-0.1252282262 -0.09699654579 -0.001112288711025711 -0.00023167675904963876
-0.1199067682 -0.09699654579 -0.001171985031790398 -0.0002119142349786863
-0.1145853102 -0.09699654579 -0.001230575473989175 -0.0001939898901196352
-0.1092638522 -0.09699654579 -0.0012892200486256454 -0.00017613023933356881
-0.1039423943 -0.09699654579 -0.0013482539932457766 -0.0001589757703173472
-0.09862093627 -0.09699654579 -0.0014048929491535102 -0.0001484093997143321
-0.09329947084 -0.09699654579 -0.0014620432903804925 -0.00013799757911811935
-0.08797801286 -0.09699654579 -0.0015196388053892197 -0.00012774079303077217
-0.08265655488 -0.09699654579 -0.0015767466961169496 -0.00011770242147101592
-0.0773350969 -0.09699654579 -0.0016304226322307123 -0.00011502760568360252
-0.07201363891 -0.09699654579 -0.0016845079612599512 -0.00011284982837830458
-0.06669218093 -0.09699654579 -0.001738559249322967 -0.0001106770128925201
-0.06137072667 -0.09699654579 -0.0017925073466498029 -0.00010843041758608582
-0.05604926869 -0.09699654579 -0.0018418169093837996 -0.00010917245145532561
-0.05072781071 -0.09699654579 -0.0018897923485103408 -0.00011029802196776887
-0.045406349 -0.09699654579 -0.0019377734577580726 -0.00011142513383236511
-0.04008489102 -0.09699654579 -0.001985853799903165 -0.00011270610673345317
-0.03476343304 -0.09699654579 -0.0020334879138184303 -0.00011431066707279203
-0.02944197692 -0.09699654579 -0.0020802605314825594 -0.00011603857720404055
-0.02412051894 -0.09699654579 -0.002126939312450139 -0.00011775688091921713
-0.01879905909 -0.09699654579 -0.002173703819206578 -0.0001194698770834085
-0.01347760204 -0.09699654579 -0.002220606035548752 -0.00012119742345891321
-0.00815614406 -0.09699654579 -0.002265784102784212 -0.00012557663494978618
-0.00283468538 -0.09699654579 -0.0023098008671649187 -0.00013186688198201147
0.002486772602 -0.09699654579 -0.0023538683751462286 -0.0001383092239023799
0.007808230817 -0.09699654579 -0.002397954802151797 -0.00014473536866303687
0.0131296888 -0.09699654579 -0.0024419867101276513 -0.0001510888935531712
0.01845114678 -0.09699654579 -0.0024836778168703254 -0.00015909056655249304
0.02377260476 -0.09699654579 -0.002523741513336764 -0.00016816433546883684
0.02909406275 -0.09699654579 -0.002563991191843493 -0.00017742689139326953
0.03441552073 -0.09699654579 -0.0026042258508637375 -0.00018670071922802657
0.03973697871 -0.09699654579 -0.002644335568290015 -0.00019581861028252718
0.04505843669 -0.09699654579 -0.0026820634167060266 -0.00020638529741487423
0.05037989467 -0.09699654579 -0.002718029047316012 -0.00021868723532209928
0.05570135266 -0.09699654579 -0.0027540635720401207 -0.00023107497474426876
0.06102281436 -0.09699654579 -0.002790146858701385 -0.00024343747629661214
0.06634426862 -0.09699654579 -0.002826095877079845 -0.0002557126928100422
0.0716657266 -0.09699654579 -0.0028620363647821776 -0.00026798499089781804
0.07698718458 -0.09699654579 -0.00290063327235047 -0.00028425541446933203
0.08230864257 -0.09699654579 -0.002939384938954301 -0.00030073961291470175
0.08763010055 -0.09699654579 -0.0029778729944233548 -0.0003172300505317966
0.09295155853 -0.09699654579 -0.003016316884867794 -0.00033366699514909425
0.09827301651 -0.09699654579 -0.0030547925781027824 -0.0003501188020613947
0.1035944745 -0.09699654579 -0.003088698147569687 -0.00037198481057131375
0.1089159325 -0.09699654579 -0.003115018950687992 -0.00040371231528364953
0.1142373979 -0.09699654579 -0.0031409516840351743 -0.0004345486335058092
0.1195588559 -0.09699654579 -0.0031665627450117046 -0.00046461297572158934
0.1248803139 -0.09699654579 -0.0031921651515780572 -0.000494677747491303
0.1302017719 -0.09699654579 -0.003218073748819836 -0.0005254334300089797
0.1355232298 -0.09699654579 -0.0032280551707775315 -0.0005534911110601866
0.1408446878 -0.09699654579 -0.003228860322234675 -0.000578225403715084
0.1461661458 -0.09699654579 -0.0032297380602358257 -0.0006029054141233406
0.1514876038 -0.09699654579 -0.0032305461181715883 -0.0006276557096729176
0.1568090618 -0.09699654579 -0.00323138962588328 -0.000652406213169862
0.1621305197 -0.09699654579 -0.0032329243382876673 -0.0006764840297832634
0.1674519777 -0.09699654579 -0.003231738302121696 -0.0006825963818310532
0.1727734357 -0.09699654579 -0.0032295012620510593 -0.000682412354500544
0.1780948937 -0.09699654579 -0.003226601924829426 -0.0006818133359485945
0.1834163517 -0.09699654579 -0.003223954359953832 -0.0006813609541880051
0.1887378097 -0.09699654579 -0.003222650375135316 -0.0006815651096458541
0.1940592676 -0.09699654579 -0.0032213160458631315 -0.0006817671158489504
0.1993807256 -0.09699654579 -0.003231990371986351 -0.0006797083462252924
0.2047021836 -0.09699654579 -0.003245812123772216 -0.0006770468077675944
0.2100236416 -0.09699654579 -0.003259417860381983 -0.000674994903830836
0.2153450996 -0.09699654579 -0.0032729872812416565 -0.0006730505215036857
0.2206665576 -0.09699654579 -0.003286551445228856 -0.0006711075734347008
0.2259880155 -0.09699654579 -0.00330008043457048 -0.0006691985173376122
0.2313094735 -0.09699654579 -0.003317008031300962 -0.0006734048546851429
0.2366309315 -0.09699654579 -0.003334420577481697 -0.0006791613640437748
0.2419523895 -0.09699654579 -0.003351883352547897 -0.000684918863646507
0.2472738475 -0.09699654579 -0.0033693659511576687 -0.0006906733470709314
0.2525953054 -0.09699654579 -0.0033862456425957717 -0.0006962685898880458
0.2579167783 -0.09699654579 -0.0034025796595704766 -0.0007017168057647992
0.2632382214 -0.09699654579 -0.0034096669193766195 -0.0007148043616008003
0.2685596943 -0.09699654579 -0.0034149527023172774 -0.0007294111145829072
0.2738811374 -0.09699654579 -0.003420232102122765 -0.0007431536937427114
0.2792026103 -0.09699654579 -0.003425478109149918 -0.0007555835306769259
0.2845240533 -0.09699654579 -0.003430760161598857 -0.0007683778742527869
0.2898455262 -0.09699654579 -0.0034360389773979067 -0.0007816162578526766
0.2951669693 -0.09699654579 -0.003421798547864256 -0.0007831525560655735
0.3004884422 -0.09699654579 -0.003407340407294401 -0.0007829032673333586
0.3058098853 -0.09699654579 -0.0033928635245088867 -0.0007828600259012098
0.3111313581 -0.09699654579 -0.0033783693677188094 -0.0007828197182945552
0.3164528012 -0.09699654579 -0.0033648619409149807 -0.0007825435270747248
0.3217742741 -0.09699654579 -0.0033535748807535146 -0.0007802331142105238
0.3270957172 -0.09699654579 -0.00335012798335152 -0.0007526373910810671
0.3324171901 -0.09699654579 -0.003346686900123627 -0.0007250385647730953
0.3377386332 -0.09699654579 -0.0033436997946963815 -0.0006984537138621699
0.343060106 -0.09699654579 -0.0033412269938935947 -0.0006728081192291477
0.3483815491 -0.09699654579 -0.003338730852833277 -0.0006470196255355208
0.353703022 -0.09699654579 -0.0033457494341080766 -0.000623509517858193
0.3590244651 -0.09699654579 -0.0033700363794631444 -0.0006049008628117772
0.364345938 -0.09699654579 -0.0033929980986522664 -0.0005870497756591974
0.369667381 -0.09699654579 -0.003415942267776475 -0.0005691451964940571
0.3749888539 -0.09699654579 -0.003438885360598641 -0.0005510718895985026
0.380310297 -0.09699654579 -0.0034608141586970533 -0.0005334503620147937
0.3856317699 -0.09699654579 -0.0034798067800848034 -0.0005285794720384698
0.390953213 -0.09699654579 -0.00349838019857015 -0.000527087589743242
0.3962746859 -0.09699654579 -0.00351717312965962 -0.0005261098704348196
0.4015961289 -0.09699654579 -0.0035355091376325924 -0.0005242229099338072
0.4069176018 -0.09699654579 -0.0035534791901558976 -0.0005218289646838415
0.4122390449 -0.09699654579 -0.0035665168039459606 -0.0005180587090434602
0.4175605178 -0.09699654579 -0.003572827141122569 -0.0005123743753626572
0.4228819609 -0.09699654579 -0.003580140841703056 -0.0005064101101000369
0.4282034338 -0.09699654579 -0.003587633975359277 -0.000500437187250136
0.4335248768 -0.09699654579 -0.0035951109412814385 -0.0004944658591026808
0.4388463497 -0.09699654579 -0.003602883298126732 -0.000487194701940413
0.4441677928 -0.09699654579 -0.003612098460360851 -0.00047703819364835196
0.4494892657 -0.09699654579 -0.0036211913055021424 -0.0004669592146539719
0.4548107088 -0.09699654579 -0.003630333886262745 -0.00045687871846801037
0.4601321816 -0.09699654579 -0.0036395707636194988 -0.00044685147728432275
0.4654536247 -0.09699654579 -0.0036500531985788334 -0.00043894396465402063
0.4707750976 -0.09699654579 -0.0036626972078126927 -0.00043339542613340053
0.4760965407 -0.09699654579 -0.003675853298291635 -0.00042811768209295394
0.4814180136 -0.09699654579 -0.003688529198948661 -0.0004225966396727254
0.4867394567 -0.09699654579 -0.003700457534238505 -0.00041683003592514413
0.4920609295 -0.09699654579 -0.0037075761010003996 -0.00041577617083003135
0.4973823726 -0.09699654579 -0.0037133966175122166 -0.0004159279437077522
0.5027038455 -0.09699654579 -0.0037191452535433054 -0.00041529550248101604
0.5080252886 -0.09699654579 -0.003724838529250929 -0.0004149534604589524
0.5133467317 -0.09699654579 -0.003725648896339199 -0.00041448320267297654
0.5186682343 -0.09699654579 -0.0037209018992527686 -0.0004134105384134856
0.5239896774 -0.09699654579 -0.003716655979553363 -0.00041105018887082744
0.5293111205 -0.09699654579 -0.0037122224753643857 -0.0004092997423324918
0.5346325636 -0.09699654579 -0.003704372116124971 -0.0004063806257265211
0.5399540663 -0.09699654579 -0.003693178092136513 -0.00040018578438461635
0.5452755094 -0.09699654579 -0.0036823002132224513 -0.00039367302672736835
0.5505969524 -0.09699654579 -0.003671156353832931 -0.00038747859772095435
0.5559183955 -0.09699654579 -0.003655712114226098 -0.0003787507089066444
0.5612398982 -0.09699654579 -0.003639645131904599 -0.0003678212771707786
0.5665613413 -0.09699654579 -0.0036235780659271788 -0.0003569115751284764
0.5718827844 -0.09699654579 -0.0036044043488499132 -0.0003456806406798031
0.5772042274 -0.09699654579 -0.0035830756193394884 -0.0003307805097496075
0.5825257301 -0.09699654579 -0.0035616885742526076 -0.0003158897178629864
0.5878471732 -0.09699654579 -0.0035369620661900884 -0.000300164700792187
0.5931686163 -0.09699654579 -0.0035101667277981224 -0.0002803781677921756
0.5984900594 -0.09699654579 -0.0034821405854542566 -0.0002611164724193115
0.6038115621 -0.09699654579 -0.003450693700588328 -0.0002378507894574109
0.6091330051 -0.09699654579 -0.0034160136941147248 -0.00021305357423598577
0.6144544482 -0.09699654579 -0.0033810990675661747 -0.00018595893625889974
0.6197758913 -0.09699654579 -0.00334114857584454 -0.00015487368780360406
0.625097394 -0.09699654579 -0.0033007521284635828 -0.00012226763781854677
0.6304188371 -0.09699654579 -0.0032553713937389585 -8.422775015395473e-05
0.6357402802 -0.09699654579 -0.003207065659502212 -4.538555332519703e-05
0.6410617828 -0.09699654579 -0.003158822066627681 -9.60436890384766e-07
0.6463832259 -0.09699654579 -0.0031050845722769577 4.805575982660607e-05
0.651704669 -0.09699654579 -0.0030488703421082124 0.00010088729273890518
0.6570261121 -0.09699654579 -0.0029902236494016824 0.0001619772686954886
0.6623476148 -0.09699654579 -0.002929839961437824 0.00022734359416548596
0.6676690578 -0.09699654579 -0.002866196360145875 0.0002982370493121157
0.6729905009 -0.09699654579 -0.0028006123772936196 0.0003762884289357004
0.678311944 -0.09699654579 -0.002731355564194378 0.00046040762961582456
0.6836334467 -0.09699654579 -0.002661241276459285 0.0005511199456589709
0.6889548898 -0.09699654579 -0.0025900999200837256 0.0006514435467709987
0.6942763329 -0.09699654579 -0.002515740311508529 0.0007615778762597322
0.6995977759 -0.09699654579 -0.002438870038340974 0.0008798827432975495
0.7049192786 -0.09699654579 -0.0023628782926011114 0.0010069250481483589
0.7102407217 -0.09699654579 -0.0022863751645751666 0.0011447244587665954
0.7155621648 -0.09699654579 -0.0022095002719825126 0.0012954204798268315
0.7208836079 -0.09699654579 -0.00213049738908614 0.0014573463185916888
0.7262051105 -0.09699654579 -0.0020530004203341327 0.0016312050014616625
0.7315265536 -0.09699654579 -0.001978868832425712 0.0018150666561926646
0.7368479967 -0.09699654579 -0.0019031564669688829 0.0020151940158264084
0.7421694398 -0.09699654579 -0.0018330062500850222 0.0022305454742495155
0.7474909425 -0.09699654579 -0.0017636924533868687 0.002460298186395617
0.7528123856 -0.09699654579 -0.0017013200275038136 0.0027081391545913554
0.7581338286 -0.09699654579 -0.0016443316451278838 0.0029718623345273885
-0.3008363545 -0.09367749095 0.0002370807674582563 -0.00195850379749083
-0.2955148816 -0.09367749095 0.00024244833654025598 -0.00189487680902547
-0.2901934385 -0.09367749095 0.0002406506978657857 -0.0018314361755183695
-0.2848719656 -0.09367749095 0.00022913886494058813 -0.0017659011541422938
-0.2795505226 -0.09367749095 0.00021445007851005304 -0.0016998952920727714
-0.2742290497 -0.09367749095 0.00019298833677223903 -0.0016296140615002907
-0.2689076066 -0.09367749095 0.00016815615136254628 -0.0015584794874624634