VARIABLES = X,Y,phix,phiy
ZONE I=200,J=200,F=POINT 
-0.3008363545 -0.1003156006 -0.00016657140431168305 -0.0013620815508936423
-0.2955148816 -0.1003156006 -0.00015248089522106517 -0.001352266878566308
-0.2901934385 -0.1003156006 -0.00013229453160881456 -0.0013404750436553912
-0.2848719656 -0.1003156006 -0.00011039674102020159 -0.0013282782671281313
-0.2795505226 -0.1003156006 -8.356719293050196e-05 -0.0013125618794424846
-0.2742290497 -0.1003156006 -5.118681020317311e-05 -0.0012917827624880287
-0.2689076066 -0.1003156006 -1.653285986938223e-05 -0.0012694469687669397
-0.2635861337 -0.1003156006 -5.563293871656651e-06 -0.0012415133712154864
-0.2582646906 -0.1003156006 -7.795336280703062e-07 -0.0012054040074393117
-0.2529432178 -0.1003156006 2.5001461383285817e-06 -0.0011654153426290186
-0.2476217598 -0.1003156006 5.421371035127157e-06 -0.0011225178555072806
-0.2423003018 -0.1003156006 5.578278365559699e-06 -0.0010780975367736315
-0.2369788438 -0.1003156006 2.334835806331711e-06 -0.0010312181584397444
-0.2316573858 -0.1003156006 -2.7642095296034118e-06 -0.0009807882315000145
-0.2263359278 -0.1003156006 -1.0366726332107087e-05 -0.0009317918109131013
-0.2210144699 -0.1003156006 -1.6031857889301813e-05 -0.0008970539043960413
-0.2156930119 -0.1003156006 -2.271044903196615e-05 -0.0008615832257034525
-0.2103715539 -0.1003156006 -3.196222382676943e-05 -0.0008262644994952331
-0.2050500959 -0.1003156006 -5.264240841569765e-05 -0.000796175515245237
-0.1997286379 -0.1003156006 -7.493174776571468e-05 -0.0007645644069690145
-0.19440718 -0.1003156006 -0.0001000257262478751 -0.000733806729163067
-0.189085722 -0.1003156006 -0.00011368411073598213 -0.000706544498992702
-0.183764264 -0.1003156006 -0.00012385020956661352 -0.000679412863355267
-0.178442806 -0.1003156006 -0.00013388192005601708 -0.0006521117917673013
-0.173121348 -0.1003156006 -0.0001525198413745954 -0.0006195317916873328
-0.16779989 -0.1003156006 -0.00017395763258759114 -0.0005858654773503699
-0.1624784321 -0.1003156006 -0.0001948777971010798 -0.0005519714665625981
-0.1571569741 -0.1003156006 -0.0002190592098673752 -0.0005192789403661545
-0.1518355161 -0.1003156006 -0.0002460936633832347 -0.0004867484066124819
-0.1465140581 -0.1003156006 -0.0002734728948894677 -0.00045434327076570614
-0.1411926001 -0.1003156006 -0.00030042799852493063 -0.00042391179284083087
-0.1358711421 -0.1003156006 -0.000328194499775148 -0.0003983559156128161
-0.1305496842 -0.1003156006 -0.0003559800519085573 -0.0003727995390339257
-0.1252282262 -0.1003156006 -0.0003840722774764731 -0.0003470924756990008
-0.1199067682 -0.1003156006 -0.0004117480288972707 -0.0003266166612427008
-0.1145853102 -0.1003156006 -0.0004395784542534767 -0.0003073803183066777
-0.1092638522 -0.1003156006 -0.0004677495645724361 -0.0002882309965209976
-0.1039423943 -0.1003156006 -0.0004955685877718677 -0.0002693824218262806
-0.09862093627 -0.1003156006 -0.0005240613487527907 -0.00025312135299354144
-0.09329947084 -0.1003156006 -0.0005531865531036684 -0.00023663494148332373
-0.08797801286 -0.1003156006 -0.0005823521919331595 -0.0002201472791171916
-0.08265655488 -0.1003156006 -0.0006114666616210741 -0.00020370074533116914
-0.0773350969 -0.1003156006 -0.0006427413159175751 -0.00019068476528362715
-0.07201363891 -0.1003156006 -0.0006739003149185111 -0.0001777243790233289
-0.06669218093 -0.1003156006 -0.0007050604585326411 -0.0001647632729354779
-0.06137072667 -0.1003156006 -0.0007368403831013837 -0.0001517490142258723
-0.05604926869 -0.1003156006 -0.0007669637553690536 -0.00014247704941765935
-0.05072781071 -0.1003156006 -0.0007967809560596797 -0.00013406451198358187
-0.045406349 -0.1003156006 -0.0008264206038025448 -0.00012559666741027582
-0.04008489102 -0.1003156006 -0.00085642206571467 -0.00011730809293289518
-0.03476343304 -0.1003156006 -0.0008855310825990505 -0.00011008440303893641
-0.02944197692 -0.1003156006 -0.0009131542095287781 -0.0001051932933924333
-0.02412051894 -0.1003156006 -0.000940852980786138 -0.00010036887630145308
-0.01879905909 -0.1003156006 -0.0009686696000498438 -9.560797408840733e-05
-0.01347760204 -0.1003156006 -0.00099635909276259 -9.07822893257015e-05
-0.00815614406 -0.1003156006 -0.0010225034593023567 -8.820109134041896e-05
-0.00283468538 -0.1003156006 -0.0010475122692247497 -8.742955454052688e-05
0.002486772602 -0.1003156006 -0.0010728260297912062 -8.683593038993558e-05
0.007808230817 -0.1003156006 -0.0010981291986474817 -8.625188981612303e-05
0.0131296888 -0.1003156006 -0.0011232130505445291 -8.550547896551204e-05
0.01845114678 -0.1003156006 -0.0011470506037054432 -8.640608286292557e-05
0.02377260476 -0.1003156006 -0.0011701031366465186 -8.868780970396158e-05
0.02909406275 -0.1003156006 -0.0011933349559752867 -9.113837901219825e-05
0.03441552073 -0.1003156006 -0.0012165685062188747 -9.358901066587495e-05
0.03973697871 -0.1003156006 -0.0012396150483226058 -9.589275718095826e-05
0.04505843669 -0.1003156006 -0.0012607815027561014 -9.871815926329762e-05
0.05037989467 -0.1003156006 -0.0012798361555859334 -0.00010258223727957026
0.05570135266 -0.1003156006 -0.0012988793458524716 -0.00010665340421261861
0.06102281436 -0.1003156006 -0.0013180240751960186 -0.00011070633112418147
0.06634426862 -0.1003156006 -0.001337066494606593 -0.00011462699033619289
0.0716657266 -0.1003156006 -0.0013560989320191938 -0.00011844946022541552
0.07698718458 -0.1003156006 -0.0013739918248507096 -0.00012231755811699247
0.08230864257 -0.1003156006 -0.0013918213034589948 -0.00012622367082362165
0.08763010055 -0.1003156006 -0.001409801937786021 -0.00013017425296072161
0.09295155853 -0.1003156006 -0.0014276191075698736 -0.0001341011573517542
0.09827301651 -0.1003156006 -0.0014453849242356508 -0.0001380041957785933
0.1035944745 -0.1003156006 -0.0014616503519192736 -0.00014335049285007213
0.1089159325 -0.1003156006 -0.0014753557537278876 -0.00015178515539828111
0.1142373979 -0.1003156006 -0.0014890208245905475 -0.0001602197015648289
0.1195588559 -0.1003156006 -0.001502423266292728 -0.00016813895106255767
0.1248803139 -0.1003156006 -0.0015158164788165772 -0.00017626877043559072
0.1302017719 -0.1003156006 -0.0015294480701191792 -0.00018448295661436034
0.1355232298 -0.1003156006 -0.0015370748952054703 -0.0001922376577599906
0.1408446878 -0.1003156006 -0.0015404989109775156 -0.00019947790164149897
0.1461661458 -0.1003156006 -0.0015442833481634935 -0.0002061111599823649
0.1514876038 -0.1003156006 -0.0015481270475122169 -0.00021274756062945345
0.1568090618 -0.1003156006 -0.0015519500910072793 -0.00021938293986423845
0.1621305197 -0.1003156006 -0.00155575239121292 -0.00022601108551916564
0.1674519777 -0.1003156006 -0.0015559694795123538 -0.00022457067129896534
0.1727734357 -0.1003156006 -0.0015546615280336987 -0.0002198905673660856
0.1780948937 -0.1003156006 -0.0015533568375936354 -0.00021521089034733839
0.1834163517 -0.1003156006 -0.001552025875438353 -0.0002105316344220713
0.1887378097 -0.1003156006 -0.0015509992216574033 -0.0002058251336141409
0.1940592676 -0.1003156006 -0.0015506676418867002 -0.00020110565130353284
0.1993807256 -0.1003156006 -0.0015535958688740897 -0.00019111824323150871
0.2047021836 -0.1003156006 -0.0015576306687066243 -0.00017946093279316952
0.2100236416 -0.1003156006 -0.0015616311987359166 -0.00016777405364992753
0.2153450996 -0.1003156006 -0.0015659708916919216 -0.0001564662959708326
0.2206665576 -0.1003156006 -0.0015702213099108883 -0.00014501005470929807
0.2259880155 -0.1003156006 -0.0015744620258321734 -0.00013355644588052622
0.2313094735 -0.1003156006 -0.0015821696859278148 -0.00012014355496973987
0.2366309315 -0.1003156006 -0.001591015014926215 -0.00010651802136550476
0.2419523895 -0.1003156006 -0.0015998401549255931 -9.300140769122095e-05
0.2472738475 -0.1003156006 -0.0016087370213801577 -7.951304353632089e-05
0.2525953054 -0.1003156006 -0.0016172918300104277 -6.612562252746268e-05
0.2579167783 -0.1003156006 -0.0016259360675158104 -5.288043800601645e-05
0.2632382214 -0.1003156006 -0.0016362732871235148 -3.800123679719176e-05
0.2685596943 -0.1003156006 -0.0016469222187698274 -2.272323936481813e-05
0.2738811374 -0.1003156006 -0.0016574689391570918 -7.381314741931599e-06
0.2792026103 -0.1003156006 -0.0016680771679295815 7.923884766212426e-06
0.2845240533 -0.1003156006 -0.001679108513564091 2.31312503405395e-05
0.2898455262 -0.1003156006 -0.001690124490990124 3.833669424277638e-05
0.2951669693 -0.1003156006 -0.0017033220906401518 5.86766761425596e-05
0.3004884422 -0.1003156006 -0.001717045032170983 7.972085111107363e-05
0.3058098853 -0.1003156006 -0.0017315475712936686 0.00010000716480998251
0.3111313581 -0.1003156006 -0.0017460505827531648 0.0001202896890529982
0.3164528012 -0.1003156006 -0.0017605959650337 0.00014057331860618845
0.3217742741 -0.1003156006 -0.001775220736998197 0.00016100015650993168
0.3270957172 -0.1003156006 -0.0018014283376919511 0.0001853887403023321
0.3324171901 -0.1003156006 -0.0018277245120766445 0.0002097545867682327
0.3377386332 -0.1003156006 -0.0018539895319467604 0.00023412290911187562
0.343060106 -0.1003156006 -0.0018803155353162896 0.0002585040652748977
0.3483815491 -0.1003156006 -0.0019065283044668413 0.0002812696227580412
0.353703022 -0.1003156006 -0.0019371019575687215 0.00030158254108500026
0.3590244651 -0.1003156006 -0.00197764954441428 0.00031666249013695164
0.364345938 -0.1003156006 -0.002018189159363003 0.00033174539122374274
0.369667381 -0.1003156006 -0.00205739677693721 0.00034590769298896976
0.3749888539 -0.1003156006 -0.0020969743718470793 0.000360311148644727
0.380310297 -0.1003156006 -0.002136725547313119 0.0003747951614914392
0.3856317699 -0.1003156006 -0.0021794363249956097 0.00037916841305743357
0.390953213 -0.1003156006 -0.0022219016151715227 0.000380242841282668
0.3962746859 -0.1003156006 -0.002264141329690546 0.00038132232631109
0.4015961289 -0.1003156006 -0.0023062763600612502 0.00038248788068400043
0.4069176018 -0.1003156006 -0.002348750399993265 0.0003837156320238866
0.4122390449 -0.1003156006 -0.0023888798584036103 0.00038107600234626527
0.4175605178 -0.1003156006 -0.0024281490989897206 0.0003726791157298816
0.4228819609 -0.1003156006 -0.002467717376312042 0.0003641716759168128
0.4282034338 -0.1003156006 -0.0025073329266411164 0.0003556787504258328
0.4335248768 -0.1003156006 -0.002545712126902839 0.0003475213569769029
0.4388463497 -0.1003156006 -0.0025831224604009064 0.0003370097537787477
0.4441677928 -0.1003156006 -0.0026178946759597677 0.0003201286608610433
0.4494892657 -0.1003156006 -0.002652552468186886 0.00030336780574234445
0.4548107088 -0.1003156006 -0.0026863759375631143 0.0002871583753330898
0.4601321816 -0.1003156006 -0.002720679577487185 0.0002706428526656016
0.4654536247 -0.1003156006 -0.002752399788555021 0.0002510125387469812
0.4707750976 -0.1003156006 -0.0027797606179951894 0.00022700556566116912
0.4760965407 -0.1003156006 -0.0028064681765002774 0.00020395379522261352
0.4814180136 -0.1003156006 -0.002833119126772162 0.0001809080116863768
0.4867394567 -0.1003156006 -0.0028598873741623814 0.00015775731175180397
0.4920609295 -0.1003156006 -0.0028791927956187857 0.00013083247782342327
0.4973823726 -0.1003156006 -0.002896034108298099 0.00010351432733239331
0.5027038455 -0.1003156006 -0.002913072760402278 7.620064408849511e-05
0.5080252886 -0.1003156006 -0.0029301175358081495 4.8909538203412266e-05
0.5133467317 -0.1003156006 -0.0029422959452235628 2.2937798850685e-05
0.5186682343 -0.1003156006 -0.002948781210111972 -4.6386414865618605e-06
0.5239896774 -0.1003156006 -0.002955178538936395 -3.226585375411168e-05
0.5293111205 -0.1003156006 -0.0029617415574826485 -5.942102062797294e-05
0.5346325636 -0.1003156006 -0.002964495859645118 -8.419736156181286e-05
0.5399540663 -0.1003156006 -0.002961767592880508 -0.00010884376115085608
0.5452755094 -0.1003156006 -0.0029587137684852255 -0.00013402192957939426
0.5505969524 -0.1003156006 -0.0029562981526155573 -0.00015804767736428277
0.5559183955 -0.1003156006 -0.002948536723646117 -0.0001788144424172949
0.5612398982 -0.1003156006 -0.0029376295699016894 -0.00020018762654894028
0.5665613413 -0.1003156006 -0.002926929843656584 -0.00022135236067912886
0.5718827844 -0.1003156006 -0.00291481281039279 -0.0002392212509585654
0.5772042274 -0.1003156006 -0.00289731325843902 -0.00025576170878495534
0.5825257301 -0.1003156006 -0.0028796998606339845 -0.0002723739807928624
0.5878471732 -0.1003156006 -0.002860675368625713 -0.00028591157940694074
0.5931686163 -0.1003156006 -0.002837664093350952 -0.00029695275458659765
0.5984900594 -0.1003156006 -0.0028147137568657445 -0.0003085314236647246
0.6038115621 -0.1003156006 -0.002787415998698716 -0.000316044403346665
0.6091330051 -0.1003156006 -0.0027598348459627756 -0.00032219114941475893
0.6144544482 -0.1003156006 -0.0027284068067497565 -0.00032612813444110806
0.6197758913 -0.1003156006 -0.002695525925014084 -0.00032678704458305273
0.625097394 -0.1003156006 -0.0026608871193701503 -0.00032509510125281
0.6304188371 -0.1003156006 -0.002622183703224251 -0.00031951813390256815
0.6357402802 -0.1003156006 -0.0025836234068633925 -0.0003108511148298977
0.6410617828 -0.1003156006 -0.002541776196211477 -0.00029927507264457926
0.6463832259 -0.1003156006 -0.0024977462659321343 -0.0002844343379853967
0.651704669 -0.1003156006 -0.002451712771220468 -0.0002672965918457507
0.6570261121 -0.1003156006 -0.0024038467563460256 -0.00024377730340477757
0.6623476148 -0.1003156006 -0.002353172599684965 -0.00021656658037591357
0.6676690578 -0.1003156006 -0.0023000819176877654 -0.00018580526285629677
0.6729905009 -0.1003156006 -0.0022443349285308505 -0.00014743593461748184
0.678311944 -0.1003156006 -0.0021878690820664433 -0.00010430517195414406
0.6836334467 -0.1003156006 -0.0021286498312836854 -5.6198319457739063e-05
0.6889548898 -0.1003156006 -0.0020666399963684707 -1.2016621531561172e-06
0.6942763329 -0.1003156006 -0.0020033508525574553 6.18243263232763e-05
0.6995977759 -0.1003156006 -0.0019382461456514386 0.0001314058579973323
0.7049192786 -0.1003156006 -0.001872264037524784 0.0002085543888094676
0.7102407217 -0.1003156006 -0.0018047001205356043 0.00029492946684149415
0.7155621648 -0.1003156006 -0.0017367768874126514 0.0003917328642471013
0.7208836079 -0.1003156006 -0.001669811105811652 0.0004982604629194439
0.7262051105 -0.1003156006 -0.0016029746058623506 0.0006145839132380485
0.7315265536 -0.1003156006 -0.0015371234683576483 0.0007429608021002589
0.7368479967 -0.1003156006 -0.001473459818799594 0.0008873509771950756
0.7421694398 -0.1003156006 -0.0014111539431476694 0.0010440924221211385
0.7474909425 -0.1003156006 -0.001357433863898834 0.001209075869936044
0.7528123856 -0.1003156006 -0.001306431516204716 0.0013934798449449601
0.7581338286 -0.1003156006 -0.0012610641726578532 0.0015927805484411892
-0.3008363545 -0.09699654579 -0.0001621234804029369 -0.0013727312896778992
-0.2955148816 -0.09699654579 -0.00014776758145332522 -0.0013623879690065942
-0.2901934385 -0.09699654579 -0.0001323252243104096 -0.0013517486863595894
-0.2848719656 -0.09699654579 -0.00010864197983336598 -0.0013383699781878535
-0.2795505226 -0.09699654579 -8.235840464698659e-05 -0.0013229405234808768
-0.2742290497 -0.09699654579 -5.081219093577212e-05 -0.0013041006359934431
-0.2689076066 -0.09699654579 -1.3847430757275591e-05 -0.0012792541023759596
-0.2635861337 -0.09699654579 1.4672046897669851e-05 -0.0012507061198767622
-0.2582646906 -0.09699654579 2.1249352100786206e-05 -0.0012149120386883757
-0.2529432178 -0.09699654579 2.4977670066876396e-05 -0.00117341989280913
-0.2476217598 -0.09699654579 2.662666819407197e-05 -0.001127032694438038
-0.2423003018 -0.09699654579 2.515560048611437e-05 -0.0010792961660809521
-0.2369788438 -0.09699654579 2.1710593573667713e-05 -0.0010302825560644159
-0.2316573858 -0.09699654579 1.4994599036939828e-05 -0.000978546219700697
-0.2263359278 -0.09699654579 6.819473144115958e-06 -0.0009238456631210919
-0.2210144699 -0.09699654579 1.1171294371326281e-07 -0.0008866944890118515
-0.2156930119 -0.09699654579 -8.869215912503948e-06 -0.0008517143861681563
-0.2103715539 -0.09699654579 -1.852700766136913e-05 -0.0008150785348913482
-0.2050500959 -0.09699654579 -3.8992365037770785e-05 -0.0007830350765040624
-0.1997286379 -0.09699654579 -6.415550980589543e-05 -0.0007523159165997907
-0.19440718 -0.09699654579 -9.01604434472383e-05 -0.0007230758410601882
-0.189085722 -0.09699654579 -0.00010539461467906511 -0.0006953504638661517
-0.183764264 -0.09699654579 -0.00011460144663330499 -0.0006666221802526169
-0.178442806 -0.09699654579 -0.0001229871415491942 -0.0006359920699255498
-0.173121348 -0.09699654579 -0.0001400211719748847 -0.000603475296394248
-0.16779989 -0.09699654579 -0.00016088324770280018 -0.0005698972637862591
-0.1624784321 -0.09699654579 -0.00018205046580171727 -0.0005364140536210186
-0.1571569741 -0.09699654579 -0.00020636847029277696 -0.0005028797887771039
-0.1518355161 -0.09699654579 -0.0002330032219126059 -0.0004701499409565318
-0.1465140581 -0.09699654579 -0.0002594106271510273 -0.00043718998302270034
-0.1411926001 -0.09699654579 -0.00028588356815611776 -0.0004063666196497718
-0.1358711421 -0.09699654579 -0.0003140519380885279 -0.0003806503604603625
-0.1305496842 -0.09699654579 -0.00034244667293135213 -0.00035503620150571883
-0.1252282262 -0.09699654579 -0.00037076794154435315 -0.00032944855620092113
-0.1199067682 -0.09699654579 -0.00039863774384054664 -0.00030866074958068993
-0.1145853102 -0.09699654579 -0.0004267354674349581 -0.00028969533450182226
-0.1092638522 -0.09699654579 -0.00045476226950948016 -0.0002706140098762598
-0.1039423943 -0.09699654579 -0.00048266604531010287 -0.0002516184843678459
-0.09862093627 -0.09699654579 -0.0005119098347607452 -0.00023503225890127768
-0.09329947084 -0.09699654579 -0.0005415504433283889 -0.00021830648409919653
-0.08797801286 -0.09699654579 -0.0005715390154969816 -0.0002014594086168149
-0.08265655488 -0.09699654579 -0.0006011695392554432 -0.00018487237220227477
-0.0773350969 -0.09699654579 -0.0006330096751399448 -0.0001718185871996864
-0.07201363891 -0.09699654579 -0.0006653427119782316 -0.00015882767909869888
-0.06669218093 -0.09699654579 -0.0006976647433772472 -0.00014582449057178837
-0.06137072667 -0.09699654579 -0.000730207064973426 -0.00013272821148838896
-0.05604926869 -0.09699654579 -0.0007612904440333821 -0.00012356109820321805
-0.05072781071 -0.09699654579 -0.0007916797769868067 -0.00011536148880726502
-0.045406349 -0.09699654579 -0.0008221284562622082 -0.00010716356658284836
-0.04008489102 -0.09699654579 -0.0008527716937054184 -9.904627134424742e-05
-0.03476343304 -0.09699654579 -0.0008826476159478065 -9.208902915214121e-05
-0.02944197692 -0.09699654579 -0.0009108960515890954 -8.751190744097944e-05
-0.02412051894 -0.09699654579 -0.0009390428931051135 -8.288600034751335e-05
-0.01879905909 -0.09699654579 -0.0009672895275143509 -7.829824152889656e-05
-0.01347760204 -0.09699654579 -0.0009955988835234663 -7.376985942667851e-05
-0.00815614406 -0.09699654579 -0.0010222933114559546 -7.152039993294015e-05
-0.00283468538 -0.09699654579 -0.0010479114011201262 -7.109360234927009e-05
0.002486772602 -0.09699654579 -0.0010736567026162055 -7.075142668212213e-05
0.007808230817 -0.09699654579 -0.0010993594016381891 -7.039746646859714e-05
0.0131296888 -0.09699654579 -0.00112505318871979 -7.000617037612012e-05
0.01845114678 -0.09699654579 -0.0011494315501550962 -7.13487472803746e-05
0.02377260476 -0.09699654579 -0.0011730128830388595 -7.403229753382467e-05
0.02909406275 -0.09699654579 -0.0011968041661909838 -7.689358169994385e-05
0.03441552073 -0.09699654579 -0.0012205909584295386 -7.977201604482958e-05
0.03973697871 -0.09699654579 -0.0012441825867540277 -8.248178624359761e-05
0.04505843669 -0.09699654579 -0.001265639155430314 -8.578800644819036e-05
0.05037989467 -0.09699654579 -0.0012847698115967304 -9.010270422776756e-05
0.05570135266 -0.09699654579 -0.0013038718459986583 -9.45025554387193e-05
0.06102281436 -0.09699654579 -0.0013230223342619786 -9.899531921700921e-05
0.06634426862 -0.09699654579 -0.0013421188087747106 -0.00010326472251555535
0.0716657266 -0.09699654579 -0.001361212864528071 -0.00010753308862738198
0.07698718458 -0.09699654579 -0.0013793909450401918 -0.00011149589327112143
0.08230864257 -0.09699654579 -0.0013975917398870716 -0.00011547497502728161
0.08763010055 -0.09699654579 -0.0014157106122420597 -0.00011947884054504512
0.09295155853 -0.09699654579 -0.0014337493986944056 -0.0001234480709169721
0.09827301651 -0.09699654579 -0.0014518041410890635 -0.00012742079042413258
0.1035944745 -0.09699654579 -0.0014683777979165454 -0.0001332541472491061
0.1089159325 -0.09699654579 -0.0014825813645944854 -0.00014266885900181175
0.1142373979 -0.09699654579 -0.0014964727102524558 -0.00015174344917608467
0.1195588559 -0.09699654579 -0.001510182483667836 -0.00016050328210887976
0.1248803139 -0.09699654579 -0.0015238728453007507 -0.00016926137598853933
0.1302017719 -0.09699654579 -0.0015377666601071264 -0.00017831162640502218
0.1355232298 -0.09699654579 -0.00154456616564804 -0.00018708972222517188
0.1408446878 -0.09699654579 -0.0015472134083131615 -0.0001950036187381838
0.1461661458 -0.09699654579 -0.0015499642641255893 -0.00020286995518602346
0.1514876038 -0.09699654579 -0.0015529589392955449 -0.0002107968339852124
0.1568090618 -0.09699654579 -0.001555935661965669 -0.00021873214072514683
0.1621305197 -0.09699654579 -0.0015591902185565173 -0.0002262352293588437
0.1674519777 -0.09699654579 -0.0015583197652123577 -0.00022456390903862535
0.1727734357 -0.09699654579 -0.0015559277295054724 -0.00021981456260700014
0.1780948937 -0.09699654579 -0.001553168391237242 -0.0002149437239067183
0.1834163517 -0.09699654579 -0.0015505070227957714 -0.00021011950343891844
0.1887378097 -0.09699654579 -0.0015487607594713083 -0.00020539774127423696
0.1940592676 -0.09699654579 -0.001546960162297434 -0.00020067540408095594
0.1993807256 -0.09699654579 -0.0015494158957045359 -0.0001900479472872375
0.2047021836 -0.09699654579 -0.0015529901669833774 -0.0001778576803365918
0.2100236416 -0.09699654579 -0.001556830319672095 -0.00016610822276971748
0.2153450996 -0.09699654579 -0.001560678011955073 -0.0001544042070375842
0.2206665576 -0.09699654579 -0.0015645458995001062 -0.00014270289953580408
0.2259880155 -0.09699654579 -0.001568354754246064 -0.00013103634910850888
0.2313094735 -0.09699654579 -0.0015762295759482081 -0.00011729855312901548
0.2366309315 -0.09699654579 -0.0015850617045530366 -0.00010319017421546877
0.2419523895 -0.09699654579 -0.0015939083530555826 -8.90847432354889e-05
0.2472738475 -0.09699654579 -0.0016028160920551883 -7.49781703203685e-05
0.2525953054 -0.09699654579 -0.001611641199811004 -6.111764710641696e-05
0.2579167783 -0.09699654579 -0.0016205017596841583 -4.743020024330797e-05
0.2632382214 -0.09699654579 -0.0016305812290389522 -3.216054521208037e-05
0.2685596943 -0.09699654579 -0.001640929485731135 -1.66286709175037e-05
0.2738811374 -0.09699654579 -0.001651425130602516 -1.1368767363569972e-06
0.2792026103 -0.09699654579 -0.0016622102549774171 1.4270890974498844e-05
0.2845240533 -0.09699654579 -0.0016728728743479907 2.9699737492476645e-05
0.2898455262 -0.09699654579 -0.0016835129954974996 4.5154428531502243e-05
0.2951669693 -0.09699654579 -0.0016962112046939504 6.654414518119861e-05
0.3004884422 -0.09699654579 -0.0017096969480995157 8.805468853724612e-05
0.3058098853 -0.09699654579 -0.0017229685126938794 0.0001095085742499558
0.3111313581 -0.09699654579 -0.0017361891576741888 0.00013096166773142012
0.3164528012 -0.09699654579 -0.0017497340294351227 0.00015214687734307515
0.3217742741 -0.09699654579 -0.0017645164721421256 0.00017310763102452287
0.3270957172 -0.09699654579 -0.0017910495263684567 0.0001994228716575331
0.3324171901 -0.09699654579 -0.0018176140998205305 0.00022573446959664188
0.3377386332 -0.09699654579 -0.0018441499671405215 0.00025138680025335803
0.343060106 -0.09699654579 -0.001870720527865495 0.000276445937862334
0.3483815491 -0.09699654579 -0.0018971988358150952 0.000301565235442924
0.353703022 -0.09699654579 -0.0019293655387619445 0.00032376544665097207
0.3590244651 -0.09699654579 -0.001971773340948505 0.00033988508504017705
0.364345938 -0.09699654579 -0.0020131054098199196 0.0003552745145565549
0.369667381 -0.09699654579 -0.002054440048238172 0.000370698297032798
0.3749888539 -0.09699654579 -0.0020955361311758365 0.00038625898204912984
0.380310297 -0.09699654579 -0.0021360249504301845 0.00040133273890668704
0.3856317699 -0.09699654579 -0.002178950752747676 0.00040522721363160424
0.390953213 -0.09699654579 -0.0022229738861633975 0.0004063062436232308
0.3962746859 -0.09699654579 -0.002267446022740579 0.0004073769287785459
0.4015961289 -0.09699654579 -0.002310997891311366 0.0004084621814016278
0.4069176018 -0.09699654579 -0.0023539964879114696 0.00040953538055935864
0.4122390449 -0.09699654579 -0.0023958747939030575 0.0004062845752387068
0.4175605178 -0.09699654579 -0.002436496964103909 0.00039735398408172065
0.4228819609 -0.09699654579 -0.002476305965267564 0.0003886505199538434
0.4282034338 -0.09699654579 -0.0025157773150241143 0.00038003298681028576
0.4335248768 -0.09699654579 -0.002555291998198547 0.00037138506881797075
0.4388463497 -0.09699654579 -0.00259424043069123 0.0003598171736618565
0.4441677928 -0.09699654579 -0.0026296612087006446 0.0003422610182733579
0.4494892657 -0.09699654579 -0.002664945031024405 0.0003249007102619229
0.4548107088 -0.09699654579 -0.0027004468872005396 0.0003075564450659953
0.4601321816 -0.09699654579 -0.002735709552584903 0.000290327508264759
0.4654536247 -0.09699654579 -0.002767311447170906 0.0002705094769605344
0.4707750976 -0.09699654579 -0.0027951970587472177 0.00024576193395905944
0.4760965407 -0.09699654579 -0.0028235370156707846 0.0002203683689807534
0.4814180136 -0.09699654579 -0.0028514596882612156 0.0001956133980886652
0.4867394567 -0.09699654579 -0.0028788210573560055 0.00017167275003070456
0.4920609295 -0.09699654579 -0.0028980638035319356 0.00014355852836174748
0.4973823726 -0.09699654579 -0.0029152282258525595 0.00011438236164807922
0.5027038455 -0.09699654579 -0.0029323462100041193 8.604874728867692e-05
0.5080252886 -0.09699654579 -0.0029494103704936084 5.748389781216168e-05
0.5133467317 -0.09699654579 -0.0029613435807120418 2.8448649115057037e-05
0.5186682343 -0.09699654579 -0.002967382042523397 -7.41318517374029e-07
0.5239896774 -0.09699654579 -0.0029736805763710063 -2.8343925268372225e-05
0.5293111205 -0.09699654579 -0.0029798718178639144 -5.67596906982398e-05
0.5346325636 -0.09699654579 -0.0029815845005392483 -8.489100663412829e-05
0.5399540663 -0.09699654579 -0.0029782204643374584 -0.00011066029392837758
0.5452755094 -0.09699654579 -0.0029750883595714185 -0.00013580553169437233
0.5505969524 -0.09699654579 -0.002971745285835092 -0.0001616035404033866
0.5559183955 -0.09699654579 -0.0029621718911834573 -0.00018536424916983386
0.5612398982 -0.09699654579 -0.0029512875490039715 -0.00020679543504447924
0.5665613413 -0.09699654579 -0.00294029217031505 -0.00022832522769065532
0.5718827844 -0.09699654579 -0.002925747214333419 -0.00024957073207447614
0.5772042274 -0.09699654579 -0.0029080674444965267 -0.0002667851518694735
0.5825257301 -0.09699654579 -0.0028902833047326675 -0.0002840198318852502
0.5878471732 -0.09699654579 -0.0028691595866714263 -0.00030039635902116087
0.5931686163 -0.09699654579 -0.0028453784699482643 -0.00031253410829568335
0.5984900594 -0.09699654579 -0.0028205175764183504 -0.00032522676748896487
0.6038115621 -0.09699654579 -0.002792576027319107 -0.00033388190345606626
0.6091330051 -0.09699654579 -0.0027615718937040244 -0.00034105028843736635
0.6144544482 -0.09699654579 -0.002730421409589196 -0.0003460536119901011
0.6197758913 -0.09699654579 -0.002694694269801454 -0.0003472141728053159
0.625097394 -0.09699654579 -0.0026585489700247785 -0.0003471190026251387
0.6304188371 -0.09699654579 -0.002619101432935022 -0.0003426019421202436
0.6357402802 -0.09699654579 -0.002577124031607145 -0.0003372998743307405
0.6410617828 -0.09699654579 -0.002534456951232406 -0.0003273558315189722
0.6463832259 -0.09699654579 -0.002487842772464055 -0.00031389007820116526
0.651704669 -0.09699654579 -0.0024390612744021136 -0.00029748587956952643
0.6570261121 -0.09699654579 -0.0023877475464106953 -0.0002746828004552626
0.6623476148 -0.09699654579 -0.0023346273074742003 -0.00024861342841861456
0.6676690578 -0.09699654579 -0.0022787014858222606 -0.00021860287174762442
0.6729905009 -0.09699654579 -0.0022205748618917367 -0.00018281096789452515
0.678311944 -0.09699654579 -0.002159035015664321 -0.00014240445748595222
0.6836334467 -0.09699654579 -0.0020961703927888015 -9.65748493748035e-05
0.6889548898 -0.09699654579 -0.002031126382947305 -4.2793417172531486e-05
0.6942763329 -0.09699654579 -0.001963126474760712 1.8738021210979204e-05
0.6995977759 -0.09699654579 -0.0018922282596482293 8.709269673137103e-05
0.7049192786 -0.09699654579 -0.0018209011505166907 0.00016333529962700628
0.7102407217 -0.09699654579 -0.0017483239521506144 0.00024917665811363123
0.7155621648 -0.09699654579 -0.0016743854111063168 0.00034681139039509823
0.7208836079 -0.09699654579 -0.0015986277447668322 0.0004541752729188106
0.7262051105 -0.09699654579 -0.0015233823572358318 0.0005729220128165917
0.7315265536 -0.09699654579 -0.0014509999952376882 0.0007018665282885364
0.7368479967 -0.09699654579 -0.0013779172096760714 0.0008449253760308537
0.7421694398 -0.09699654579 -0.001309511931604996 0.0010029656588536756
0.7474909425 -0.09699654579 -0.0012431048319942624 0.0011742294642779084
0.7528123856 -0.09699654579 -0.0011835823920016612 0.0013620355908191416
0.7581338286 -0.09699654579 -0.0011310121738812404 0.0015650850386116873
-0.3008363545 -0.09367749095 -0.00015770114623392433 -0.0013835920764657286
-0.2955148816 -0.09367749095 -0.0001428997293086449 -0.001374937422043905
-0.2901934385 -0.09367749095 -0.00012950827198828974 -0.0013625459026130383
-0.2848719656 -0.09367749095 -0.00010974289807946166 -0.0013505200984811141
-0.2795505226 -0.09367749095 -8.213686960306611e-05 -0.001334775476996597
-0.2742290497 -0.09367749095 -4.988697584387461e-05 -0.0013153992465162346