VARIABLES = X,Y,phix,phiy
ZONE I=200,J=200,F=POINT 
-0.3008363545 -0.1003156006 -6.064837307954543e-05 0.00028799895774284123
-0.2955148816 -0.1003156006 -5.922345939356189e-05 0.00025852396982549913
-0.2901934385 -0.1003156006 -5.698666416382937e-05 0.0002315538598087357
-0.2848719656 -0.1003156006 -5.4054196867088e-05 0.00020374307077089475
-0.2795505226 -0.1003156006 -4.938405871449015e-05 0.0001733544824408363
-0.2742290497 -0.1003156006 -4.319931683350267e-05 0.00014166199769563424
-0.2689076066 -0.1003156006 -3.5157830294087216e-05 0.00010834824614021318
-0.2635861337 -0.1003156006 -1.6092770400343953e-05 9.145102819401745e-05
-0.2582646906 -0.1003156006 1.2236978235595934e-05 8.32833976824822e-05
-0.2529432178 -0.1003156006 4.618372352309674e-05 7.731054447675167e-05
-0.2476217598 -0.1003156006 8.47556936538953e-05 7.337873223722523e-05
-0.2423003018 -0.1003156006 0.00011247937116524308 6.573965995344201e-05
-0.2369788438 -0.1003156006 0.00013135264195987564 5.416352648544305e-05
-0.2316573858 -0.1003156006 0.0001513652324287427 4.3848467624542175e-05
-0.2263359278 -0.1003156006 0.000170654506315256 3.441745066292741e-05
-0.2210144699 -0.1003156006 0.00017300516992035538 2.599002487127905e-05
-0.2156930119 -0.1003156006 0.00017451749710793715 1.8980212533614688e-05
-0.2103715539 -0.1003156006 0.00017546141891378755 1.272323666349685e-05
-0.2050500959 -0.1003156006 0.0001905704228378665 7.384246885134946e-06
-0.1997286379 -0.1003156006 0.00020425258489155287 1.0401442571737071e-06
-0.19440718 -0.1003156006 0.00022028536855109502 -4.794883391389054e-06
-0.189085722 -0.1003156006 0.00022935279833994688 -1.2986571637201701e-05
-0.183764264 -0.1003156006 0.00023791032229715235 -2.4669487935322088e-05
-0.178442806 -0.1003156006 0.00024542760824334886 -3.6949815992131335e-05
-0.173121348 -0.1003156006 0.0002589159706586021 -4.828215094010877e-05
-0.16779989 -0.1003156006 0.0002735849943489278 -5.9595956043865956e-05
-0.1624784321 -0.1003156006 0.0002882229361543801 -6.956810077909019e-05
-0.1571569741 -0.1003156006 0.0003048059676778889 -7.725857581992538e-05
-0.1518355161 -0.1003156006 0.0003230135515715411 -8.414196994183898e-05
-0.1465140581 -0.1003156006 0.00034150270478216214 -9.113879472688214e-05
-0.1411926001 -0.1003156006 0.0003593303540434125 -9.67527615691414e-05
-0.1358711421 -0.1003156006 0.0003765337484224366 -9.859191735890235e-05
-0.1305496842 -0.1003156006 0.0003937203920208179 -0.0001004381685269058
-0.1252282262 -0.1003156006 0.00041097039103961283 -0.00010219445062762425
-0.1199067682 -0.1003156006 0.0004262611969656475 -0.00010256713749317912
-0.1145853102 -0.1003156006 0.0004410023691392137 -0.00010242251903327521
-0.1092638522 -0.1003156006 0.0004560823912812866 -0.00010190793941377618
-0.1039423943 -0.1003156006 0.00047088339043960964 -0.00010137910920024775
-0.09862093627 -0.1003156006 0.0004838564192543246 -0.00010068954451654306
-0.09329947084 -0.1003156006 0.0004972789602380859 -0.00010007170491875103
-0.08797801286 -0.1003156006 0.0005107225903466328 -9.945471919134007e-05
-0.08265655488 -0.1003156006 0.0005242941948514668 -9.89105371488979e-05
-0.0773350969 -0.1003156006 0.0005384728594240913 -9.577995727623531e-05
-0.07201363891 -0.1003156006 0.0005526344545770653 -9.264418824740288e-05
-0.06669218093 -0.1003156006 0.0005668437506662168 -8.950859601145452e-05
-0.06137072667 -0.1003156006 0.0005813551584055554 -8.628874693488697e-05
-0.05604926869 -0.1003156006 0.0005934186453222116 -8.2385796919987e-05
-0.05072781071 -0.1003156006 0.0006048685716123392 -7.824822337636905e-05
-0.045406349 -0.1003156006 0.0006161779250626946 -7.418239834039684e-05
-0.04008489102 -0.1003156006 0.0006276623845333476 -6.996544533895846e-05
-0.03476343304 -0.1003156006 0.0006388257090185632 -6.631826153537005e-05
-0.02944197692 -0.1003156006 0.0006493480207373136 -6.394284683619381e-05
-0.02412051894 -0.1003156006 0.000659902415214247 -6.157506107343971e-05
-0.01879905909 -0.1003156006 0.0006705229170781269 -5.9256441433708214e-05
-0.01347760204 -0.1003156006 0.00068108934882537 -5.689114127556279e-05
-0.00815614406 -0.1003156006 0.0006920085976548678 -5.260260966506526e-05
-0.00283468538 -0.1003156006 0.0007032602109776376 -4.677172273025312e-05
0.002486772602 -0.1003156006 0.0007148989377767202 -4.088552074244072e-05
0.007808230817 -0.1003156006 0.0007265859033105521 -3.497563542175606e-05
0.0131296888 -0.1003156006 0.0007379135018867578 -2.9144163636220372e-05
0.01845114678 -0.1003156006 0.0007485979324605349 -2.098995910385811e-05
0.02377260476 -0.1003156006 0.0007588487410099895 -1.0918447201145802e-05
0.02909406275 -0.1003156006 0.0007692989023089184 -6.303824747945585e-07
0.03441552073 -0.1003156006 0.0007797160630054474 9.65866938130121e-06
0.03973697871 -0.1003156006 0.0007899723199277491 1.9754894489819865e-05
0.04505843669 -0.1003156006 0.0007969898517793967 3.0226351005737962e-05
0.05037989467 -0.1003156006 0.0008002804868355256 4.0794902208735376e-05
0.05570135266 -0.1003156006 0.0008035362041101239 5.157069872537264e-05
0.06102281436 -0.1003156006 0.0008067782617443452 6.230880778098418e-05
0.06634426862 -0.1003156006 0.0008100699103980218 7.289725849467013e-05
0.0716657266 -0.1003156006 0.0008134038995171101 8.341453513124552e-05
0.07698718458 -0.1003156006 0.0008184557167314913 9.12002375078071e-05
0.08230864257 -0.1003156006 0.0008236856772461158 9.876360831942287e-05
0.08763010055 -0.1003156006 0.0008290659996576082 0.00010624579182388944
0.09295155853 -0.1003156006 0.0008343020167438985 0.00011381552131526076
0.09827301651 -0.1003156006 0.0008393677899797161 0.00012144821082571243
0.1035944745 -0.1003156006 0.000843133408204796 0.0001315570587460521
0.1089159325 -0.1003156006 0.0008452582575783554 0.00014661470813477365
0.1142373979 -0.1003156006 0.0008474231597875941 0.0001616694752485111
0.1195588559 -0.1003156006 0.0008489797323805494 0.00017597746214482473
0.1248803139 -0.1003156006 0.0008508176249760861 0.00019058972163029197
0.1302017719 -0.1003156006 0.0008526790121415579 0.00020532357858463985
0.1355232298 -0.1003156006 0.0008461244546735445 0.00021829531680662086
0.1408446878 -0.1003156006 0.0008335884395274312 0.00022976052530419646
0.1461661458 -0.1003156006 0.0008217888724451569 0.00024051705677106524
0.1514876038 -0.1003156006 0.000810063837414249 0.00025127620773547215
0.1568090618 -0.1003156006 0.0007982616692060286 0.0002620367877597234
0.1621305197 -0.1003156006 0.0007865817743141956 0.00027280091821006784
0.1674519777 -0.1003156006 0.0007738000831104098 0.0002692854916201696
0.1727734357 -0.1003156006 0.0007604667577852096 0.0002597923668409047
0.1780948937 -0.1003156006 0.0007471143209909578 0.00025029687306960235
0.1834163517 -0.1003156006 0.0007337969020564739 0.00024080479463522853
0.1887378097 -0.1003156006 0.0007209319789762915 0.00023155863109104607
0.1940592676 -0.1003156006 0.0007090189923805391 0.0002229528531310721
0.1993807256 -0.1003156006 0.0007106381734436307 0.00020993972528375175
0.2047021836 -0.1003156006 0.0007165913319893394 0.00019545750179059444
0.2100236416 -0.1003156006 0.0007225957544874598 0.00018097998355063298
0.2153450996 -0.1003156006 0.0007284296505437167 0.00016784963088524018
0.2206665576 -0.1003156006 0.0007342834057115144 0.0001542440672541439
0.2259880155 -0.1003156006 0.0007401701570892095 0.0001406322004377408
0.2313094735 -0.1003156006 0.000758440079293948 0.00013398550210611337
0.2366309315 -0.1003156006 0.000779096268451452 0.0001300507086532713
0.2419523895 -0.1003156006 0.0007992133072017052 0.0001263249380504657
0.2472738475 -0.1003156006 0.0008193648624138462 0.0001226032135982272
0.2525953054 -0.1003156006 0.0008392530650424857 0.00011891389684449165
0.2579167783 -0.1003156006 0.0008583579440079185 0.00011566367985321486
0.2632382214 -0.1003156006 0.0008759629065306693 0.00012677074713803753
0.2685596943 -0.1003156006 0.0008935328014025727 0.00014170010182198097
0.2738811374 -0.1003156006 0.0009116709930372654 0.00015704957704187227
0.2792026103 -0.1003156006 0.0009293507456844872 0.00017204209071242413
0.2845240533 -0.1003156006 0.0009459903249087221 0.0001860706713805352
0.2898455262 -0.1003156006 0.0009625490266235102 0.00020009581981231326
0.2951669693 -0.1003156006 0.0009649641297198231 0.0002167093579319866
0.3004884422 -0.1003156006 0.0009651075033141572 0.0002335878007301755
0.3058098853 -0.1003156006 0.0009661884516219109 0.00024955610900016096
0.3111313581 -0.1003156006 0.0009671806861796144 0.00026551339094513064
0.3164528012 -0.1003156006 0.0009682286460665249 0.0002814774784843148
0.3217742741 -0.1003156006 0.0009692661146529427 0.000297255313846884
0.3270957172 -0.1003156006 0.0009703173902446251 0.00030265816011920243
0.3324171901 -0.1003156006 0.0009712848319891516 0.0003080967169374702
0.3377386332 -0.1003156006 0.0009722322751504463 0.00031352626608094396
0.343060106 -0.1003156006 0.0009733413897798177 0.00031895340524912643
0.3483815491 -0.1003156006 0.000974476562185348 0.00032535805933688646
0.353703022 -0.1003156006 0.0009791850937324452 0.00033443283530975703
0.3590244651 -0.1003156006 0.0009914092725721237 0.000349230982216708
0.364345938 -0.1003156006 0.0010036296491374346 0.0003640343512360958
0.369667381 -0.1003156006 0.0010142113389589125 0.00037891637060385655
0.3749888539 -0.1003156006 0.001025267556774529 0.00039381846367387056
0.380310297 -0.1003156006 0.001036383562000502 0.0004086518344456312
0.3856317699 -0.1003156006 0.001042725956303082 0.00043437001793281534
0.390953213 -0.1003156006 0.0010464133896512162 0.0004623035362572759
0.3962746859 -0.1003156006 0.0010498540252548247 0.0004899169090902782
0.4015961289 -0.1003156006 0.0010532634648670774 0.0005174625776119404
0.4069176018 -0.1003156006 0.0010567885147944056 0.0005450157049991406
0.4122390449 -0.1003156006 0.0010540278347332438 0.000572939031566067
0.4175605178 -0.1003156006 0.0010437573033444554 0.0006037322510156201
0.4228819609 -0.1003156006 0.0010338100334798025 0.0006348509393211829
0.4282034338 -0.1003156006 0.001023706344179281 0.0006660530542151431
0.4335248768 -0.1003156006 0.0010134099114986865 0.0006956252553359298
0.4388463497 -0.1003156006 0.0010001181925168607 0.0007253318832486939
0.4441677928 -0.1003156006 0.0009787970640219332 0.0007555896277806465
0.4494892657 -0.1003156006 0.0009572516832406504 0.0007856411000675636
0.4548107088 -0.1003156006 0.0009357368401161127 0.0008146019350569006
0.4601321816 -0.1003156006 0.000914417153030259 0.0008441596233213367
0.4654536247 -0.1003156006 0.0008889150691427747 0.0008735016073065208
0.4707750976 -0.1003156006 0.0008568429692113006 0.0009018895358173608
0.4760965407 -0.1003156006 0.0008249695889687236 0.0009288164182218256
0.4814180136 -0.1003156006 0.0007930871080708051 0.0009557566076736717
0.4867394567 -0.1003156006 0.0007611009631891677 0.0009828264443319842
0.4920609295 -0.1003156006 0.0007184819144547849 0.0010064180469979871
0.4973823726 -0.1003156006 0.0006734590876929859 0.0010282804625876005
0.5027038455 -0.1003156006 0.0006284100527068395 0.0010502432569443703
0.5080252886 -0.1003156006 0.0005834878211926336 0.0010721966048340028
0.5133467317 -0.1003156006 0.0005351555979786426 0.0010871853486208154
0.5186682343 -0.1003156006 0.00047861518231690213 0.001097108626659718
0.5239896774 -0.1003156006 0.00042210095998348215 0.001107042673120651
0.5293111205 -0.1003156006 0.0003662926593554821 0.0011166538490532355
0.5346325636 -0.1003156006 0.0003109219319127795 0.001119320656225132
0.5399540663 -0.1003156006 0.00025103374419173656 0.0011146148897584755
0.5452755094 -0.1003156006 0.0001902458460165056 0.00110997318001053
0.5505969524 -0.1003156006 0.00013148856301377343 0.0011051886160464673
0.5559183955 -0.1003156006 7.411515702554772e-05 0.0010913552915339689
0.5612398982 -0.1003156006 1.3568099077647257e-05 0.0010738283743521517
0.5665613413 -0.1003156006 -4.659253383360356e-05 0.001056423297481363
0.5718827844 -0.1003156006 -0.00010316594321041916 0.0010355408099931758
0.5772042274 -0.1003156006 -0.0001616173639947181 0.0010076093199851064
0.5825257301 -0.1003156006 -0.00022002093247990107 0.0009796396414511117
0.5878471732 -0.1003156006 -0.0002760283640719872 0.0009483289863743736
0.5931686163 -0.1003156006 -0.0003310607163008983 0.0009116355050509432
0.5984900594 -0.1003156006 -0.00038647200535854494 0.0008752854538610071
0.6038115621 -0.1003156006 -0.00044020358927287335 0.0008322875446899768
0.6091330051 -0.1003156006 -0.0004923734249675845 0.0007884808237519598
0.6144544482 -0.1003156006 -0.0005443844896112028 0.0007399326984195629
0.6197758913 -0.1003156006 -0.0005937017251884921 0.0006882561089209233
0.625097394 -0.1003156006 -0.0006416249850012189 0.0006341849982057879
0.6304188371 -0.1003156006 -0.0006883876651511227 0.0005746292253125176
0.6357402802 -0.1003156006 -0.0007320388134796179 0.0005138625414807001
0.6410617828 -0.1003156006 -0.0007739647258838914 0.00044981807872657815
0.6463832259 -0.1003156006 -0.0008141211856967667 0.00038179229150880504
0.651704669 -0.1003156006 -0.0008528073967605541 0.00031169211543949745
0.6570261121 -0.1003156006 -0.0008868094250513357 0.0002378306716728606
0.6623476148 -0.1003156006 -0.0009185718016394859 0.00016114906168317641
0.6676690578 -0.1003156006 -0.0009483372454530877 8.111721217618056e-05
0.6729905009 -0.1003156006 -0.0009727131744390259 -3.1953485763454083e-06
0.678311944 -0.1003156006 -0.0009939674742613096 -8.952621343344736e-05
0.6836334467 -0.1003156006 -0.0010122936609653936 -0.00017910493436465834
0.6889548898 -0.1003156006 -0.0010249350967815212 -0.00027139155703774823
0.6942763329 -0.1003156006 -0.0010343928487574472 -0.00036833696937107026
0.6995977759 -0.1003156006 -0.0010391735396282963 -0.0004679603523165449
0.7049192786 -0.1003156006 -0.0010382078140458212 -0.0005698461626718213
0.7102407217 -0.1003156006 -0.0010305359550003 -0.0006738852310442333
0.7155621648 -0.1003156006 -0.0010163054152927083 -0.0007810305387067687
0.7208836079 -0.1003156006 -0.0009952467473179729 -0.0008897563288724692
0.7262051105 -0.1003156006 -0.00096688163067464 -0.0009996107346378132
0.7315265536 -0.1003156006 -0.0009304837059718833 -0.001109884310739574
0.7368479967 -0.1003156006 -0.0008822430506041766 -0.0012209101745355696
0.7421694398 -0.1003156006 -0.0008255435417777868 -0.00133260821477284
0.7474909425 -0.1003156006 -0.0007612362085040462 -0.0014395040400260657
0.7528123856 -0.1003156006 -0.0006866416758958091 -0.0015443119472792653
0.7581338286 -0.1003156006 -0.0006001927245617257 -0.0016445257458521346
-0.3008363545 -0.09699654579 -7.641819745314961e-05 0.00029083511235871617
-0.2955148816 -0.09699654579 -7.510908838206142e-05 0.0002594627804291556
-0.2901934385 -0.09699654579 -7.171039275678553e-05 0.00022798529291728572
-0.2848719656 -0.09699654579 -6.808731421108096e-05 0.00019920057653604638
-0.2795505226 -0.09699654579 -6.405733735482169e-05 0.00016764846777075744
-0.2742290497 -0.09699654579 -5.837886839964819e-05 0.00013489335212170934
-0.2689076066 -0.09699654579 -4.878436838979989e-05 0.00010108228064925898
-0.2635861337 -0.09699654579 -3.4188029461888955e-05 7.402029919510366e-05
-0.2582646906 -0.09699654579 -8.472408379370721e-06 6.364200363421947e-05
-0.2529432178 -0.09699654579 2.7010807700278897e-05 5.8355654717742396e-05
-0.2476217598 -0.09699654579 7.106596459038716e-05 5.650628379913125e-05
-0.2423003018 -0.09699654579 0.00011127762028851616 5.416805044878251e-05
-0.2369788438 -0.09699654579 0.00013002982731637967 4.325128511689754e-05
-0.2316573858 -0.09699654579 0.0001512539104617308 3.3398935404618524e-05
-0.2263359278 -0.09699654579 0.00017266544816265105 2.7158561033286773e-05
-0.2210144699 -0.09699654579 0.00017690247992075927 2.0546449444607927e-05
-0.2156930119 -0.09699654579 0.00017764427891323888 1.4455185855339712e-05
-0.2103715539 -0.09699654579 0.00017316495127383248 7.826603321879939e-06
-0.2050500959 -0.09699654579 0.0001819961333725175 1.983993727310791e-06
-0.1997286379 -0.09699654579 0.00019810353663444704 -3.829215002308114e-06
-0.19440718 -0.09699654579 0.00021372311736794487 -9.56934898585806e-06
-0.189085722 -0.09699654579 0.00022230392675160184 -2.0924191130700305e-05
-0.183764264 -0.09699654579 0.0002289021805912385 -3.407988274415161e-05
-0.178442806 -0.09699654579 0.00023692482715409843 -4.829979007061322e-05
-0.173121348 -0.09699654579 0.0002494504780925422 -5.9831964592356954e-05
-0.16779989 -0.09699654579 0.0002638952169530414 -6.906771980320195e-05
-0.1624784321 -0.09699654579 0.00027800079915533266 -7.835701186518275e-05
-0.1571569741 -0.09699654579 0.000294816766381036 -8.693471745610202e-05
-0.1518355161 -0.09699654579 0.00031235173298378564 -9.432145214255939e-05
-0.1465140581 -0.09699654579 0.00032929347497763685 -0.00010189944860604864
-0.1411926001 -0.09699654579 0.0003463248189369213 -0.00010794918982447792
-0.1358711421 -0.09699654579 0.0003636323584134567 -0.00010966402038575228
-0.1305496842 -0.09699654579 0.00038109773021825836 -0.00011123381543139355
-0.1252282262 -0.09699654579 0.0003986667596951308 -0.0001128883734742152
-0.1199067682 -0.09699654579 0.0004143434975197494 -0.00011273712935351363
-0.1145853102 -0.09699654579 0.00042952325540058335 -0.00011204276521748116
-0.1092638522 -0.09699654579 0.00044453762782111855 -0.00011127065869170511
-0.1039423943 -0.09699654579 0.0004592097452872298 -0.0001102082489124764
-0.09862093627 -0.09699654579 0.00047281071467343246 -0.000109457418057205
-0.09329947084 -0.09699654579 0.0004866392521241541 -0.00010862874340060185
-0.08797801286 -0.09699654579 0.0005007945049544401 -0.000107730992536532
-0.08265655488 -0.09699654579 0.0005147872549769973 -0.00010694444823882502
-0.0773350969 -0.09699654579 0.0005293976178699214 -0.00010373695225784956
-0.07201363891 -0.09699654579 0.0005442914023716269 -0.00010036539056186663
-0.06669218093 -0.09699654579 0.000559292901484932 -9.701818658303137e-05
-0.06137072667 -0.09699654579 0.000574998690060392 -9.382818242181491e-05
-0.05604926869 -0.09699654579 0.000588135399560697 -8.972276908350228e-05
-0.05072781071 -0.09699654579 0.0006003285519189986 -8.546262221299097e-05
-0.045406349 -0.09699654579 0.0006125280774954556 -8.120081792980691e-05
-0.04008489102 -0.09699654579 0.0006247273260123356 -7.675193592867035e-05
-0.03476343304 -0.09699654579 0.0006365793115640869 -7.291448906919152e-05
-0.02944197692 -0.09699654579 0.0006475990513081994 -7.082902617903874e-05
-0.02412051894 -0.09699654579 0.0006586843594585204 -6.868969409984914e-05
-0.01879905909 -0.09699654579 0.0006697123226733892 -6.661370908876365e-05
-0.01347760204 -0.09699654579 0.0006807765290402422 -6.462434462717108e-05
-0.00815614406 -0.09699654579 0.000692444998031638 -6.0408124734376374e-05
-0.00283468538 -0.09699654579 0.0007046775327484241 -5.444450971314724e-05
0.002486772602 -0.09699654579 0.0007171299903332521 -4.8440350190584115e-05
0.007808230817 -0.09699654579 0.0007295144887051646 -4.247849838640895e-05
0.0131296888 -0.09699654579 0.000741839599759592 -3.6502073621729295e-05
0.01845114678 -0.09699654579 0.0007533139722440725 -2.7886446841424187e-05
0.02377260476 -0.09699654579 0.0007641583151628801 -1.7255346533109035e-05
0.02909406275 -0.09699654579 0.0007752417127028864 -6.373466086926176e-06
0.03441552073 -0.09699654579 0.0007863273328144849 4.5398836075768784e-06
0.03973697871 -0.09699654579 0.0007971509985066872 1.521518125665858e-05
0.04505843669 -0.09699654579 0.0008042345903077504 2.6270834216677532e-05
0.05037989467 -0.09699654579 0.0008070934448559255 3.7292579370199346e-05
0.05570135266 -0.09699654579 0.0008099192941528239 4.840576369619041e-05
0.06102281436 -0.09699654579 0.0008125712932664217 5.9586940097442684e-05
0.06634426862 -0.09699654579 0.0008154397102719534 7.05457433294569e-05
0.0716657266 -0.09699654579 0.0008182636324272586 8.150338014095095e-05
0.07698718458 -0.09699654579 0.0008237070437947402 8.89831168884208e-05
0.08230864257 -0.09699654579 0.0008291459901742037 9.625467885905941e-05
0.08763010055 -0.09699654579 0.0008346105128552142 0.0001035798534410507
0.09295155853 -0.09699654579 0.0008400171616075193 0.00011093580629908365
0.09827301651 -0.09699654579 0.0008453416953054371 0.00011825785295395988
0.1035944745 -0.09699654579 0.0008494696189355976 0.00012881677748774814
0.1089159325 -0.09699654579 0.0008520813269888685 0.0001452783868899365
0.1142373979 -0.09699654579 0.0008544209175492819 0.00016125848354680262
0.1195588559 -0.09699654579 0.0008564255498273608 0.00017679208055660677
0.1248803139 -0.09699654579 0.0008584834299416471 0.00019232448084702204
0.1302017719 -0.09699654579 0.000860755987702497 0.00020826649947730457
0.1355232298 -0.09699654579 0.0008524963377575162 0.00022248712773269638
0.1408446878 -0.09699654579 0.0008385252205855982 0.00023476184945046523
0.1461661458 -0.09699654579 0.0008246048800385552 0.00024698761681172523
0.1514876038 -0.09699654579 0.0008111506483349063 0.00025931035887021947
0.1568090618 -0.09699654579 0.0007977231606745126 0.00027163898079646064
0.1621305197 -0.09699654579 0.0007848636266965546 0.00028341473082321586
0.1674519777 -0.09699654579 0.0007703957621974205 0.0002785878709852572
0.1727734357 -0.09699654579 0.0007553031451663718 0.00026787388263902335
0.1780948937 -0.09699654579 0.0007395988008531524 0.00025663761671149734
0.1834163517 -0.09699654579 0.0007241363940834849 0.0002455616153508959
0.1887378097 -0.09699654579 0.0007100166419882815 0.00023547076421411977
0.1940592676 -0.09699654579 0.000695945418133335 0.00022537976154954142
0.1993807256 -0.09699654579 0.0006980087960278724 0.00021001224906992322
0.2047021836 -0.09699654579 0.0007044516725976524 0.00019318569720765217
0.2100236416 -0.09699654579 0.0007106726681375053 0.00017795133037217127
0.2153450996 -0.09699654579 0.0007167753900416706 0.00016290826137295775
0.2206665576 -0.09699654579 0.0007229068956464575 0.0001478610092530803
0.2259880155 -0.09699654579 0.0007290417661931327 0.00013280134307221947
0.2313094735 -0.09699654579 0.0007488911115259536 0.00012580773477557092
0.2366309315 -0.09699654579 0.0007719106880981887 0.00012089726063718401
0.2419523895 -0.09699654579 0.0007948946615140587 0.00011598900884854819
0.2472738475 -0.09699654579 0.000817866578708343 0.0001110753870992811
0.2525953054 -0.09699654579 0.0008397257372404091 0.00010666058578609557
0.2579167783 -0.09699654579 0.0008606530177908846 0.00010259750505766264
0.2632382214 -0.09699654579 0.0008804955894278692 0.00011572934442525663
0.2685596943 -0.09699654579 0.0009002310097611414 0.00013249193278141243
0.2738811374 -0.09699654579 0.0009192671580326844 0.0001485829043066162
0.2792026103 -0.09699654579 0.000937320789237745 0.0001638311749611129
0.2845240533 -0.09699654579 0.0009556509392736321 0.00017926337307987546
0.2898455262 -0.09699654579 0.0009743710719057457 0.00019507052770435457
0.2951669693 -0.09699654579 0.0009754676907595522 0.0002126408278934811
0.3004884422 -0.09699654579 0.0009753300231034672 0.00022995088830657538
0.3058098853 -0.09699654579 0.0009750577580676234 0.0002474222755163797
0.3111313581 -0.09699654579 0.0009748917081351821 0.00026488892474448174
0.3164528012 -0.09699654579 0.0009748894464010901 0.0002819474499534083
0.3217742741 -0.09699654579 0.0009755181598616896 0.00029771678610063593
0.3270957172 -0.09699654579 0.000976327342993159 0.0003017977690192164
0.3324171901 -0.09699654579 0.000977169352720333 0.00030588714991353983
0.3377386332 -0.09699654579 0.000978115253829713 0.0003104025766758633
0.343060106 -0.09699654579 0.0009792182348344757 0.00031537814440018636
0.3483815491 -0.09699654579 0.0009803083566094948 0.00032032368143581464
0.353703022 -0.09699654579 0.0009862281028125523 0.00032868224494256483
0.3590244651 -0.09699654579 0.0010008749938012563 0.0003436014542061306
0.364345938 -0.09699654579 0.001014182717014461 0.00035861446796888954
0.369667381 -0.09699654579 0.0010273763729218295 0.0003736109530014282
0.3749888539 -0.09699654579 0.0010404587221828606 0.00038838427345783794
0.380310297 -0.09699654579 0.0010527847299367633 0.0004032266709390123
0.3856317699 -0.09699654579 0.0010588934458358422 0.0004294081694322277
0.390953213 -0.09699654579 0.0010639214923740246 0.0004589882068074022
0.3962746859 -0.09699654579 0.0010693855365848776 0.000488821359419696
0.4015961289 -0.09699654579 0.00107408184703967 0.0005179818426567208
0.4069176018 -0.09699654579 0.001078217904954731 0.0005462829615994548
0.4122390449 -0.09699654579 0.0010761423885393944 0.0005764930281101085
0.4175605178 -0.09699654579 0.001066328386258333 0.000609254892618519
0.4228819609 -0.09699654579 0.0010563061821396132 0.0006410163059470826
0.4282034338 -0.09699654579 0.0010462973273459746 0.0006721659950055183
0.4335248768 -0.09699654579 0.001036256880390292 0.0007035410783029995
0.4388463497 -0.09699654579 0.0010227716576159795 0.0007357103320330711
0.4441677928 -0.09699654579 0.0010012520202361936 0.0007669988945305265
0.4494892657 -0.09699654579 0.000979900689402293 0.00079812654490505
0.4548107088 -0.09699654579 0.0009586004592624414 0.0008293236073509573
0.4601321816 -0.09699654579 0.0009371019128331221 0.0008602850497355339
0.4654536247 -0.09699654579 0.0009113909876731667 0.0008896173864478914
0.4707750976 -0.09699654579 0.0008791130530969297 0.000919129992033985
0.4760965407 -0.09699654579 0.0008470414722522963 0.0009496790977103072
0.4814180136 -0.09699654579 0.0008148111586824985 0.0009792209224251068
0.4867394567 -0.09699654579 0.0007828034036416329 0.0010075274596137564
0.4920609295 -0.09699654579 0.0007390950295417058 0.0010325787197110838
0.4973823726 -0.09699654579 0.000692418494146987 0.0010568381520506321
0.5027038455 -0.09699654579 0.0006462239770797247 0.0010799433036099487
0.5080252886 -0.09699654579 0.0006000318799130412 0.0011033966310251804
0.5133467317 -0.09699654579 0.0005475988562629423 0.001121236571797763
0.5186682343 -0.09699654579 0.0004884904243229653 0.0011322726930029876
0.5239896774 -0.09699654579 0.00043187252702683453 0.001142012117146567
0.5293111205 -0.09699654579 0.0003738385248779546 0.0011524197753857003
0.5346325636 -0.09699654579 0.00031278336207908944 0.0011566450328885306
0.5399540663 -0.09699654579 0.0002507884459575155 0.00115201069330076
0.5452755094 -0.09699654579 0.0001899620508518316 0.001147267984181653
0.5505969524 -0.09699654579 0.0001278227717879251 0.0011426321080953079
0.5559183955 -0.09699654579 6.479856319165032e-05 0.0011285739833643785
0.5612398982 -0.09699654579 4.3637618460867086e-06 0.0011111332779795012
0.5665613413 -0.09699654579 -5.630542520697594e-05 0.0010936711572613628
0.5718827844 -0.09699654579 -0.00011878668914482336 0.0010720039255476973
0.5772042274 -0.09699654579 -0.0001780959886469668 0.001044122595203414
0.5825257301 -0.09699654579 -0.00023734474137952075 0.0010162328170924989
0.5878471732 -0.09699654579 -0.0002973960398377217 0.000984326774254229
0.5931686163 -0.09699654579 -0.00035406898323269277 0.0009471337641143371
0.5984900594 -0.09699654579 -0.00041205094992566196 0.0009090910841963642
0.6038115621 -0.09699654579 -0.00046720468786135987 0.0008661662408957882
0.6091330051 -0.09699654579 -0.0005227385896415091 0.0008193732076692524
0.6144544482 -0.09699654579 -0.000575738711021514 0.0007716580323047889
0.6197758913 -0.09699654579 -0.0006265055745993569 0.0007179080282480055
0.625097394 -0.09699654579 -0.0006766515486788352 0.0006630865120536539
0.6304188371 -0.09699654579 -0.0007248054507018976 0.0006035063693827114
0.6357402802 -0.09699654579 -0.0007728842990385597 0.0005410792543606068
0.6410617828 -0.09699654579 -0.0008164509655225462 0.00047608072797267697
0.6463832259 -0.09699654579 -0.0008586829726893898 0.00040692674236644224
0.651704669 -0.09699654579 -0.0008991094861476866 0.0003347924802258617
0.6570261121 -0.09699654579 -0.000934848467202449 0.00025882030010671
0.6623476148 -0.09699654579 -0.0009686613427263076 0.00018019734564316334
0.6676690578 -0.09699654579 -0.001000052308182073 9.853622575565527e-05
0.6729905009 -0.09699654579 -0.0010274191167635198 1.2834468035291688e-05
0.678311944 -0.09699654579 -0.0010522879376421372 -7.65255894301582e-05
0.6836334467 -0.09699654579 -0.0010732899613658446 -0.00016795495220696212
0.6889548898 -0.09699654579 -0.0010884838225520333 -0.00026296081975841666
0.6942763329 -0.09699654579 -0.001099943114634188 -0.0003626620261549445
0.6995977759 -0.09699654579 -0.0011065665079520424 -0.0004658548636566196
0.7049192786 -0.09699654579 -0.001107302598382449 -0.0005710578048661333
0.7102407217 -0.09699654579 -0.0011018115494220888 -0.0006793306318982406
0.7155621648 -0.09699654579 -0.0010879463336497916 -0.0007904125910310959
0.7208836079 -0.09699654579 -0.0010673059884242332 -0.0009053255814676081
0.7262051105 -0.09699654579 -0.0010386011558655042 -0.0010215745275385223
0.7315265536 -0.09699654579 -0.0010007882835473408 -0.0011365355347118808
0.7368479967 -0.09699654579 -0.0009558061894798755 -0.0012547166644078485
0.7421694398 -0.09699654579 -0.0008981789222493365 -0.0013700113081356585
0.7474909425 -0.09699654579 -0.0008312477626438976 -0.0014856573039238239
0.7528123856 -0.09699654579 -0.000751980106824722 -0.0015965684691404824
0.7581338286 -0.09699654579 -0.0006640507248682915 -0.00170238105296831
-0.3008363545 -0.09367749095 -9.274686748831295e-05 0.00029418707379082486
-0.2955148816 -0.09367749095 -9.175925622958918e-05 0.0002625073629000617
-0.2901934385 -0.09367749095 -8.71181577273119e-05 0.00022619826527476252
-0.2848719656 -0.09367749095 -8.347693827951928e-05 0.00019345506910662348
-0.2795505226 -0.09367749095 -7.959318599128572e-05 0.000161655602709776
-0.2742290497 -0.09367749095 -7.294349781835773e-05 0.0001270622164747527
-0.2689076066 -0.09367749095 -6.472588608958922e-05 9.308434527189372e-05
-0.2635861337 -0.09367749095 -5.443759042945525e-05 5.8543253836070454e-05
-0.2582646906 -0.09367749095 -2.745689284703087e-05 4.478837174137661e-05
-0.2529432178 -0.09367749095 5.611778650763048e-06 3.778941119371617e-05
-0.2476217598 -0.09367749095 4.89620653420278e-05 3.5852569265894625e-05