VARIABLES = X,Y,phix,phiy
ZONE I=200,J=200,F=POINT 
-0.3008363545 -0.1003156006 0.0006537393032412405 -0.0006183006652742149
-0.2955148816 -0.1003156006 0.0006630996439192438 -0.0006069710079833611
-0.2901934385 -0.1003156006 0.0006724989672238793 -0.0005910730692141079
-0.2848719656 -0.1003156006 0.0006823446698859611 -0.0005745784367574162
-0.2795505226 -0.1003156006 0.0006927661254844023 -0.000554955403211856
-0.2742290497 -0.1003156006 0.000703564776431685 -0.0005313262099971705
-0.2689076066 -0.1003156006 0.0007159572399388441 -0.0005063421606939951
-0.2635861337 -0.1003156006 0.0007323353831100297 -0.0004904956493947643
-0.2582646906 -0.1003156006 0.0007512721224026205 -0.0004752222269668854
-0.2529432178 -0.1003156006 0.0007713805728199796 -0.00045781212731300924
-0.2476217598 -0.1003156006 0.0007932028131504751 -0.00043796405164980883
-0.2423003018 -0.1003156006 0.0007927884818631769 -0.000417231574473704
-0.2369788438 -0.1003156006 0.0007771964189169341 -0.0003983751265772301
-0.2316573858 -0.1003156006 0.0007590428053634431 -0.00037844224168623027
-0.2263359278 -0.1003156006 0.0007408617753754092 -0.0003586301799081004
-0.2210144699 -0.1003156006 0.0007367722481096659 -0.00032922969425010234
-0.2156930119 -0.1003156006 0.0007320848015544768 -0.0002964876812131541
-0.2103715539 -0.1003156006 0.0007275596322187526 -0.00026094986675833504
-0.2050500959 -0.1003156006 0.0007264521915000135 -0.00023824801671852095
-0.1997286379 -0.1003156006 0.000723916530009468 -0.0002207207608712454
-0.19440718 -0.1003156006 0.000721332085383319 -0.0002021962661236886
-0.189085722 -0.1003156006 0.0006988003313591655 -0.00019065173154378943
-0.183764264 -0.1003156006 0.0006712803213728325 -0.0001775577764482019
-0.178442806 -0.1003156006 0.0006429628730462898 -0.00016384441495754214
-0.173121348 -0.1003156006 0.0006271433633694342 -0.00015477334138671922
-0.16779989 -0.1003156006 0.0006154614281461222 -0.0001463662675712795
-0.1624784321 -0.1003156006 0.0006047562116630001 -0.00013885395791799024
-0.1571569741 -0.1003156006 0.0005922666086473044 -0.00013303392836472026
-0.1518355161 -0.1003156006 0.0005788464715306129 -0.00012801211060145353
-0.1465140581 -0.1003156006 0.0005654797803995204 -0.0001228874093912938
-0.1411926001 -0.1003156006 0.0005513273430250419 -0.00011708908031930381
-0.1358711421 -0.1003156006 0.0005362991864541653 -0.00011008226209571475
-0.1305496842 -0.1003156006 0.0005212784656914787 -0.00010307830600036885
-0.1252282262 -0.1003156006 0.0005069760378342837 -9.626864959042429e-05
-0.1199067682 -0.1003156006 0.0004950434762116171 -9.226540543062998e-05
-0.1145853102 -0.1003156006 0.0004838129022050826 -8.91156744381293e-05
-0.1092638522 -0.1003156006 0.0004729514164260883 -8.61919350161126e-05
-0.1039423943 -0.1003156006 0.0004620633184046553 -8.336060569785145e-05
-0.09862093627 -0.1003156006 0.0004520546980336518 -8.277988926297852e-05
-0.09329947084 -0.1003156006 0.00044233414701360844 -8.210070759130276e-05
-0.08797801286 -0.1003156006 0.00043261739160123613 -8.142350873377215e-05
-0.08265655488 -0.1003156006 0.00042268215762768474 -8.066517803457589e-05
-0.0773350969 -0.1003156006 0.00041175610207500713 -8.089256904010712e-05
-0.07201363891 -0.1003156006 0.00040080344820881694 -8.110055533256107e-05
-0.06669218093 -0.1003156006 0.0003898626340226447 -8.131074493675099e-05
-0.06137072667 -0.1003156006 0.00037879223033005047 -8.148614056253873e-05
-0.05604926869 -0.1003156006 0.00036837811964810955 -8.183252197410352e-05
-0.05072781071 -0.1003156006 0.00035805639792734997 -8.225803123716196e-05
-0.045406349 -0.1003156006 0.00034781168716301974 -8.261028338705948e-05
-0.04008489102 -0.1003156006 0.00033759684284657396 -8.309034803663322e-05
-0.03476343304 -0.1003156006 0.00032743289670061714 -8.317411750049973e-05
-0.02944197692 -0.1003156006 0.0003175589999310485 -8.233655359425551e-05
-0.02412051894 -0.1003156006 0.00030761282966063633 -8.149674063487413e-05
-0.01879905909 -0.1003156006 0.0002977232529312908 -8.063126127792213e-05
-0.01347760204 -0.1003156006 0.0002878790117974927 -7.978419836828704e-05
-0.00815614406 -0.1003156006 0.00027772533826816607 -7.949094643870761e-05
-0.00283468538 -0.1003156006 0.0002675994030718632 -7.963138738059262e-05
0.002486772602 -0.1003156006 0.00025718903886676794 -7.980963215643737e-05
0.007808230817 -0.1003156006 0.0002469277452777424 -8.000295492669194e-05
0.0131296888 -0.1003156006 0.0002366841469298154 -8.014619857570585e-05
0.01845114678 -0.1003156006 0.00022658921074998706 -8.109327812113187e-05
0.02377260476 -0.1003156006 0.0002166566626882932 -8.266467878941025e-05
0.02909406275 -0.1003156006 0.00020671406731913452 -8.431162023028288e-05
0.03441552073 -0.1003156006 0.00019680462650081043 -8.595822831906407e-05
0.03973697871 -0.1003156006 0.00018679493482470587 -8.753948141483886e-05
0.04505843669 -0.1003156006 0.00017825959857148662 -8.962739850526956e-05
0.05037989467 -0.1003156006 0.00017110980915073602 -9.221370857876914e-05
0.05570135266 -0.1003156006 0.00016401012106159708 -9.481938916042836e-05
0.06102281436 -0.1003156006 0.0001568333271750194 -9.739458591448011e-05
0.06634426862 -0.1003156006 0.0001496848207592625 -9.995527419712727e-05
0.0716657266 -0.1003156006 0.00014256872329105553 -0.0001025308861952159
0.07698718458 -0.1003156006 0.0001329104120233446 -0.00010572199811297821
0.08230864257 -0.1003156006 0.00012309396899378447 -0.00010894192640955633
0.08763010055 -0.1003156006 0.0001130480772720884 -0.00011212996288176595
0.09295155853 -0.1003156006 0.00010316043135506122 -0.0001153448935789463
0.09827301651 -0.1003156006 9.348945074024485e-05 -0.00011858863776800458
0.1035944745 -0.1003156006 8.483667858650091e-05 -0.0001236866724725311
0.1089159325 -0.1003156006 7.790788581661267e-05 -0.00013241976692818165
0.1142373979 -0.1003156006 7.095689226168202e-05 -0.0001411531441488181
0.1195588559 -0.1003156006 6.428882331104268e-05 -0.00014928435882389246
0.1248803139 -0.1003156006 5.746255976487673e-05 -0.00015765533474932768
0.1302017719 -0.1003156006 5.0640143179727904e-05 -0.0001661323180020511
0.1355232298 -0.1003156006 4.975356101938083e-05 -0.00017314474798146916
0.1408446878 -0.1003156006 5.3140808013367996e-05 -0.00017894773989888908
0.1461661458 -0.1003156006 5.590627246065099e-05 -0.0001844327504607118
0.1514876038 -0.1003156006 5.860351532311454e-05 -0.00018991720266680262
0.1568090618 -0.1003156006 6.136730952752023e-05 -0.00019539996802618554
0.1621305197 -0.1003156006 6.408339908545181e-05 -0.00020089520994214937
0.1674519777 -0.1003156006 6.494829778324324e-05 -0.00019837812064986315
0.1727734357 -0.1003156006 6.530707309999707e-05 -0.00019246514869331426
0.1780948937 -0.1003156006 6.55696231396237e-05 -0.000186546064160199
0.1834163517 -0.1003156006 6.58774395630918e-05 -0.0001806367760023677
0.1887378097 -0.1003156006 6.60544479324074e-05 -0.00017492570561627698
0.1940592676 -0.1003156006 6.577113556859417e-05 -0.00016975120871699366
0.1993807256 -0.1003156006 5.568973355520882e-05 -0.00016500665916514183
0.2047021836 -0.1003156006 4.262928322356232e-05 -0.00016037483632346596
0.2100236416 -0.1003156006 2.9442076541049615e-05 -0.0001557304979779407
0.2153450996 -0.1003156006 1.6776546442899332e-05 -0.00015182543328957728
0.2206665576 -0.1003156006 3.937881175392145e-06 -0.0001476848594427384
0.2259880155 -0.1003156006 -8.852730012586142e-06 -0.00014355029395854952
0.2313094735 -0.1003156006 -2.7005968927193443e-05 -0.00014709150751911017
0.2366309315 -0.1003156006 -4.594593011957382e-05 -0.00015308514373967692
0.2419523895 -0.1003156006 -6.438008983308943e-05 -0.0001591717245762199
0.2472738475 -0.1003156006 -8.28081889022178e-05 -0.00016525597553650393
0.2525953054 -0.1003156006 -0.00010122116936080266 -0.00017125339568785537
0.2579167783 -0.1003156006 -0.00011897180432549062 -0.00017731262587680362
0.2632382214 -0.1003156006 -0.00013274771175799454 -0.0001930305273369008
0.2685596943 -0.1003156006 -0.00014581919023361065 -0.00021135508761990678
0.2738811374 -0.1003156006 -0.00015920257938454793 -0.00023000007427371699
0.2792026103 -0.1003156006 -0.00017226325554483158 -0.0002483739815962782
0.2845240533 -0.1003156006 -0.00018464972367703193 -0.0002659399067785244
0.2898455262 -0.1003156006 -0.0001968615877808121 -0.00028350765190413143
0.2951669693 -0.1003156006 -0.00019726410967606622 -0.00030438899264221186
0.3004884422 -0.1003156006 -0.00019571756676839218 -0.00032562587242544137
0.3058098853 -0.1003156006 -0.0001944532146139887 -0.00034573357432647
0.3111313581 -0.1003156006 -0.0001932762157727418 -0.00036583443543471324
0.3164528012 -0.1003156006 -0.000192130397448868 -0.0003859335789896406
0.3217742741 -0.1003156006 -0.00019073731861786976 -0.0004059286850540237
0.3270957172 -0.1003156006 -0.00018215430882961617 -0.00041818812283712237
0.3324171901 -0.1003156006 -0.00017340869028702728 -0.00043045524788252684
0.3377386332 -0.1003156006 -0.00016477144479852578 -0.0004427215031424068
0.343060106 -0.1003156006 -0.00015611879907592352 -0.00045497200854252936
0.3483815491 -0.1003156006 -0.00014794316887616066 -0.0004671085819258165
0.353703022 -0.1003156006 -0.00014009359153218447 -0.00047878347221296457
0.3590244651 -0.1003156006 -0.00013262546065177786 -0.0004893405094976496
0.364345938 -0.1003156006 -0.00012520619804494093 -0.0004998935003721074
0.369667381 -0.1003156006 -0.00011764685642730688 -0.0005100788966744208
0.3749888539 -0.1003156006 -0.00011023283948197383 -0.0005203505090636342
0.380310297 -0.1003156006 -0.00010265532441021333 -0.0005306779839959287
0.3856317699 -0.1003156006 -9.084594528566962e-05 -0.0005403635007922372
0.390953213 -0.1003156006 -7.820812664341875e-05 -0.0005490746239128722
0.3962746859 -0.1003156006 -6.556401469189534e-05 -0.000557675446568106
0.4015961289 -0.1003156006 -5.294590420452363e-05 -0.0005663094984953829
0.4069176018 -0.1003156006 -4.029595743577655e-05 -0.0005749748534088332
0.4122390449 -0.1003156006 -2.6657644367437838e-05 -0.0005799553376262122
0.4175605178 -0.1003156006 -1.0324618195171125e-05 -0.0005802581011898532
0.4228819609 -0.1003156006 6.499092024237267e-06 -0.0005805480589962212
0.4282034338 -0.1003156006 2.3202597473062154e-05 -0.0005808448439377207
0.4335248768 -0.1003156006 3.861084116234846e-05 -0.0005811658874241808
0.4388463497 -0.1003156006 5.322250317238038e-05 -0.000579303238870956
0.4441677928 -0.1003156006 6.589525586010068e-05 -0.0005713258406624722
0.4494892657 -0.1003156006 7.842737208362434e-05 -0.000563438379602693
0.4548107088 -0.1003156006 9.022612935403122e-05 -0.0005561442889280553
0.4601321816 -0.1003156006 0.0001024973029529161 -0.0005485544976944892
0.4654536247 -0.1003156006 0.00011185626290656239 -0.0005394498938630455
0.4707750976 -0.1003156006 0.00011665677966627078 -0.0005282140313544825
0.4760965407 -0.1003156006 0.00012137832211719986 -0.0005177207676179574
0.4814180136 -0.1003156006 0.00012611677086866877 -0.0005072361413760148
0.4867394567 -0.1003156006 0.00013086072976093165 -0.0004966537908101401
0.4920609295 -0.1003156006 0.0001310571030211447 -0.0004858742773278728
0.4973823726 -0.1003156006 0.00013015478346385805 -0.00047550063694329906
0.5027038455 -0.1003156006 0.00012908229514355465 -0.00046510701439982316
0.5080252886 -0.1003156006 0.00012808252980817556 -0.0004546965539101786
0.5133467317 -0.1003156006 0.00012508235077056355 -0.0004451580886329823
0.5186682343 -0.1003156006 0.00011990485142643956 -0.0004350017106352148
0.5239896774 -0.1003156006 0.0001148653864134922 -0.00042486160553443353
0.5293111205 -0.1003156006 0.00010973932149858082 -0.00041492720677723834
0.5346325636 -0.1003156006 0.00010256083132549582 -0.00040632491073033734
0.5399540663 -0.1003156006 9.277970492815137e-05 -0.000397761540268302
0.5452755094 -0.1003156006 8.288635776048139e-05 -0.0003889271500183826
0.5505969524 -0.1003156006 7.319307926593907e-05 -0.0003806897695502652
0.5559183955 -0.1003156006 6.028819471571906e-05 -0.00037498862271835955
0.5612398982 -0.1003156006 4.6030301200665115e-05 -0.0003689433660418236
0.5665613413 -0.1003156006 3.180825000288718e-05 -0.00036306311738456073
0.5718827844 -0.1003156006 1.690069524795508e-05 -0.00035933039770203373
0.5772042274 -0.1003156006 -4.2352521696406256e-07 -0.0003570163794755665
0.5825257301 -0.1003156006 -1.780229525341739e-05 -0.0003546506197334321
0.5878471732 -0.1003156006 -3.565902543655376e-05 -0.00035413144363231734
0.5931686163 -0.1003156006 -5.515677570985927e-05 -0.00035529273967760486
0.5984900594 -0.1003156006 -7.481517391302903e-05 -0.00035621034061712986
0.6038115621 -0.1003156006 -9.595353341188601e-05 -0.0003599559973206528
0.6091330051 -0.1003156006 -0.00011693275986233507 -0.0003644636450510962
0.6144544482 -0.1003156006 -0.00013896294153870577 -0.0003706112736743101
0.6197758913 -0.1003156006 -0.00016136900898961265 -0.0003789699240653227
0.625097394 -0.1003156006 -0.00018376855343837069 -0.0003884640895676773
0.6304188371 -0.1003156006 -0.00020648409871923718 -0.00040060619038527695
0.6357402802 -0.1003156006 -0.00022887420973039964 -0.0004142347765732833
0.6410617828 -0.1003156006 -0.0002521643307684356 -0.0004298072870109391
0.6463832259 -0.1003156006 -0.0002752344396487734 -0.0004472897059262102
0.651704669 -0.1003156006 -0.0002981104031682915 -0.0004661301062387638
0.6570261121 -0.1003156006 -0.00031974088288315547 -0.00048782002369101207
0.6623476148 -0.1003156006 -0.00034091241637230303 -0.0005112034442984364
0.6676690578 -0.1003156006 -0.00036179511161653393 -0.0005365375418116562
0.6729905009 -0.1003156006 -0.0003812212752360947 -0.0005644486831381704
0.678311944 -0.1003156006 -0.00039944023560017705 -0.0005937830603135782
0.6836334467 -0.1003156006 -0.00041672676639718516 -0.0006249644126201621
0.6889548898 -0.1003156006 -0.0004329897620549153 -0.0006585317308301289
0.6942763329 -0.1003156006 -0.00044685239535811357 -0.0006930371985296169
0.6995977759 -0.1003156006 -0.00045920796780850336 -0.0007289520855304708
0.7049192786 -0.1003156006 -0.0004699793749241143 -0.0007666483077739823
0.7102407217 -0.1003156006 -0.000478874236336967 -0.000805462864900773
0.7155621648 -0.1003156006 -0.00048548964663491404 -0.000845642993777353
0.7208836079 -0.1003156006 -0.0004901628053943959 -0.0008862136369807863
0.7262051105 -0.1003156006 -0.0004929499342307475 -0.0009272787124682345
0.7315265536 -0.1003156006 -0.0004941598500839979 -0.0009697749251675252
0.7368479967 -0.1003156006 -0.0004926664826712128 -0.0010121794694441754
0.7421694398 -0.1003156006 -0.0004900610918727794 -0.0010554299863525217
0.7474909425 -0.1003156006 -0.0004855877175054436 -0.0010986251552977029
0.7528123856 -0.1003156006 -0.0004793519347736585 -0.0011424592303395415
0.7581338286 -0.1003156006 -0.0004717812235327022 -0.0011872442252380791
-0.3008363545 -0.09699654579 0.0006580548029911713 -0.0006254223308684938
-0.2955148816 -0.09699654579 0.0006680324963627264 -0.0006157216222861903
-0.2901934385 -0.09699654579 0.0006793985850877157 -0.0006030174680261484
-0.2848719656 -0.09699654579 0.000689475914431686 -0.0005853183766422452
-0.2795505226 -0.09699654579 0.0007008873845654208 -0.0005665339453590828
-0.2742290497 -0.09699654579 0.0007123424086856158 -0.0005442601696823443
-0.2689076066 -0.09699654579 0.0007254713466146129 -0.00051757704688883
-0.2635861337 -0.09699654579 0.0007424835602083083 -0.000494031676650285
-0.2582646906 -0.09699654579 0.0007631767345727999 -0.00048013410247900337
-0.2529432178 -0.09699654579 0.0007849951975318066 -0.00046149732616839167
-0.2476217598 -0.09699654579 0.0008080378172511053 -0.0004393497346942088
-0.2423003018 -0.09699654579 0.0008195338887112313 -0.00041592601062677984
-0.2369788438 -0.09699654579 0.0008036234855587467 -0.000394822953407492
-0.2316573858 -0.09699654579 0.0007835530049360809 -0.00037585892621833035
-0.2263359278 -0.09699654579 0.0007593329870506512 -0.0003544213224807628
-0.2210144699 -0.09699654579 0.0007519563690170024 -0.0003233150753855743
-0.2156930119 -0.09699654579 0.0007472372288740551 -0.000288133648371556
-0.2103715539 -0.09699654579 0.0007403206741896201 -0.0002583447839033367
-0.2050500959 -0.09699654579 0.0007365825764783056 -0.00023760173308983638
-0.1997286379 -0.09699654579 0.0007340155225750337 -0.00021903591168480167
-0.19440718 -0.09699654579 0.0007324769446878954 -0.0001988971508964221
-0.189085722 -0.09699654579 0.0007089828275418992 -0.00018206317226484873
-0.183764264 -0.09699654579 0.0006787954405569143 -0.0001679565118269489
-0.178442806 -0.09699654579 0.0006437827327822131 -0.00015545321429740863
-0.173121348 -0.09699654579 0.0006258437648954287 -0.000146201397162762
-0.16779989 -0.09699654579 0.000615556812642634 -0.00013920096943544468
-0.1624784321 -0.09699654579 0.0006059553407382722 -0.0001330109714600543
-0.1571569741 -0.09699654579 0.0005934463346308163 -0.00012822939354996475
-0.1518355161 -0.09699654579 0.000578350620539116 -0.00012273175272418846
-0.1465140581 -0.09699654579 0.0005617028715514836 -0.00011619779488120114
-0.1411926001 -0.09699654579 0.0005451700197262602 -0.00010927755249468964
-0.1358711421 -0.09699654579 0.0005309764598216962 -0.0001025235778375079
-0.1305496842 -0.09699654579 0.0005171574128348606 -9.587613277173205e-05
-0.1252282262 -0.09699654579 0.0005038774639553604 -8.903138522687309e-05
-0.1199067682 -0.09699654579 0.0004925387094832436 -8.53934372686554e-05
-0.1145853102 -0.09699654579 0.0004820301405163248 -8.25139898747883e-05
-0.1092638522 -0.09699654579 0.00047165370707138467 -7.975511833414123e-05
-0.1039423943 -0.09699654579 0.00046129395812314554 -7.733338541579006e-05
-0.09862093627 -0.09699654579 0.00045133565985523743 -7.65692805929184e-05
-0.09329947084 -0.09699654579 0.0004414065527382533 -7.575941093365263e-05
-0.08797801286 -0.09699654579 0.0004313581203869858 -7.48777671334628e-05
-0.08265655488 -0.09699654579 0.0004212234985170552 -7.399364304298956e-05
-0.0773350969 -0.09699654579 0.00041006198053752854 -7.414408484582458e-05
-0.07201363891 -0.09699654579 0.0003988297513983915 -7.430459396562705e-05
-0.06669218093 -0.09699654579 0.00038761819452416793 -7.446306137997563e-05
-0.06137072667 -0.09699654579 0.00037664723126358784 -7.459010151715485e-05
-0.05604926869 -0.09699654579 0.00036618490977904293 -7.508718146019855e-05
-0.05072781071 -0.09699654579 0.0003560493361695723 -7.565482033889792e-05
-0.045406349 -0.09699654579 0.0003459211170883915 -7.622416473130197e-05
-0.04008489102 -0.09699654579 0.0003358196346457242 -7.685497444371053e-05
-0.03476343304 -0.09699654579 0.0003257344113857451 -7.702960359599533e-05
-0.02944197692 -0.09699654579 0.00031573880679764245 -7.604477359902882e-05
-0.02412051894 -0.09699654579 0.0003057402286497818 -7.509618647662653e-05
-0.01879905909 -0.09699654579 0.00029580500455239585 -7.410346558796193e-05
-0.01347760204 -0.09699654579 0.00028569707951735284 -7.306803777500835e-05
-0.00815614406 -0.09699654579 0.0002752554262406466 -7.275680772298109e-05
-0.00283468538 -0.09699654579 0.0002646221048500535 -7.299100210687733e-05
0.002486772602 -0.09699654579 0.0002538767098835722 -7.324543623265469e-05
0.007808230817 -0.09699654579 0.00024316881977984393 -7.348490702425704e-05
0.0131296888 -0.09699654579 0.00023249876978539359 -7.372457676792789e-05
0.01845114678 -0.09699654579 0.00022211608122405928 -7.484456356018748e-05
0.02377260476 -0.09699654579 0.00021190592427745462 -7.658693145207803e-05
0.02909406275 -0.09699654579 0.00020145156149156625 -7.841002288765103e-05
0.03441552073 -0.09699654579 0.00019103859478096172 -8.02416334573397e-05
0.03973697871 -0.09699654579 0.00018078805961910894 -8.200549090477606e-05
0.04505843669 -0.09699654579 0.0001720709747846187 -8.424318044513887e-05
0.05037989467 -0.09699654579 0.00016482260788413194 -8.685046348376058e-05
0.05570135266 -0.09699654579 0.00015752010106581758 -8.948007780288834e-05
0.06102281436 -0.09699654579 0.00015019207846678776 -9.208267066350165e-05
0.06634426862 -0.09699654579 0.00014293336090240278 -9.46735639366834e-05
0.0716657266 -0.09699654579 0.00013572582459101922 -9.726347305394268e-05
0.07698718458 -0.09699654579 0.00012521988328258302 -0.00010039810159144722
0.08230864257 -0.09699654579 0.00011470339650862345 -0.0001035476642514574
0.08763010055 -0.09699654579 0.0001042910555889354 -0.00010672562938530209
0.09295155853 -0.09699654579 9.389641008829184e-05 -0.00010986759242097894
0.09827301651 -0.09699654579 8.348609627555946e-05 -0.00011303347947615285
0.1035944745 -0.09699654579 7.439876440803921e-05 -0.00011857366320501543
0.1089159325 -0.09699654579 6.710761588644821e-05 -0.00012837042335196134
0.1142373979 -0.09699654579 6.009992170911951e-05 -0.00013783129942009418
0.1195588559 -0.09699654579 5.338167604018375e-05 -0.0001469877102716691
0.1248803139 -0.09699654579 4.66144306391415e-05 -0.000156143930559997
0.1302017719 -0.09699654579 3.9639309881085227e-05 -0.00016557685205647146
0.1355232298 -0.09699654579 4.005875224816618e-05 -0.00017335923803242652
0.1408446878 -0.09699654579 4.45931225646771e-05 -0.00017955734523734544
0.1461661458 -0.09699654579 4.905245745233112e-05 -0.00018573109045356756
0.1514876038 -0.09699654579 5.309772262267124e-05 -0.0001919161693410341
0.1568090618 -0.09699654579 5.715882669326404e-05 -0.0001981057486415679
0.1621305197 -0.09699654579 6.0784319350635033e-05 -0.00020404703215066858
0.1674519777 -0.09699654579 6.279795038428618e-05 -0.0002003801536870422
0.1727734357 -0.09699654579 6.433905410712218e-05 -0.00019323920648323334
0.1780948937 -0.09699654579 6.61130182603641e-05 -0.00018560489437349125
0.1834163517 -0.09699654579 6.775177989041964e-05 -0.00017812690022237337
0.1887378097 -0.09699654579 6.88665446825213e-05 -0.00017165616871502585
0.1940592676 -0.09699654579 7.001462058386577e-05 -0.00016518197579792237
0.1993807256 -0.09699654579 5.9625787592214495e-05 -0.00015924183235563484
0.2047021836 -0.09699654579 4.6127983142728795e-05 -0.00015340957398042048
0.2100236416 -0.09699654579 3.330461830541203e-05 -0.0001484149993105854
0.2153450996 -0.09699654579 2.0537350460990354e-05 -0.00014355320084802762
0.2206665576 -0.09699654579 7.705372150912063e-06 -0.00013868726278655567
0.2259880155 -0.09699654579 -5.127924578424216e-06 -0.00013379708442351433
0.2313094735 -0.09699654579 -2.3931304519753403e-05 -0.00013737605597975515
0.2366309315 -0.09699654579 -4.43709691009915e-05 -0.00014303085657143218
0.2419523895 -0.09699654579 -6.47828869718865e-05 -0.000148679094900825
0.2472738475 -0.09699654579 -8.523148226786625e-05 -0.0001543294725446297
0.2525953054 -0.09699654579 -0.00010493343233757272 -0.00016014587871026896
0.2579167783 -0.09699654579 -0.00012393888300441268 -0.00016610863465188027
0.2632382214 -0.09699654579 -0.00013922206258528005 -0.0001836389339805961
0.2685596943 -0.09699654579 -0.00015382356118986252 -0.00020355087709625035
0.2738811374 -0.09699654579 -0.0001678663282527342 -0.00022297393233949143
0.2792026103 -0.09699654579 -0.0001813056599268032 -0.00024176442761124757
0.2845240533 -0.09699654579 -0.00019488680937338322 -0.0002607020535434779
0.2898455262 -0.09699654579 -0.00020876996245260918 -0.0002799032522784969
0.2951669693 -0.09699654579 -0.00020838178232254433 -0.00030231163787012476
0.3004884422 -0.09699654579 -0.00020675192029732858 -0.0003242569189811344
0.3058098853 -0.09699654579 -0.00020506440853250684 -0.00034615911591066504
0.3111313581 -0.09699654579 -0.00020335966132080318 -0.0003680628164377778
0.3164528012 -0.09699654579 -0.0002018285646755356 -0.0003895208006089511
0.3217742741 -0.09699654579 -0.00020000388440928878 -0.0004097109285695738
0.3270957172 -0.09699654579 -0.00019127909996705743 -0.00042201495633935505
0.3324171901 -0.09699654579 -0.00018242080958552956 -0.0004343269610898134
0.3377386332 -0.09699654579 -0.0001738739924165727 -0.0004466191835848123
0.343060106 -0.09699654579 -0.00016549639695295372 -0.0004588904515830266
0.3483815491 -0.09699654579 -0.00015710050625084577 -0.0004712123185058808
0.353703022 -0.09699654579 -0.00014933338362670964 -0.0004831964171688355
0.3590244651 -0.09699654579 -0.0001426237179238967 -0.0004942873786912292
0.364345938 -0.09699654579 -0.0001357003693003115 -0.0005051260960693572
0.369667381 -0.09699654579 -0.0001288097913803597 -0.0005159717448560465
0.3749888539 -0.09699654579 -0.00012139505801352894 -0.000526718694901652
0.380310297 -0.09699654579 -0.00011399593743066639 -0.0005372546743007346
0.3856317699 -0.09699654579 -0.00010199798169804742 -0.0005469206594776966
0.390953213 -0.09699654579 -8.869172305070203e-05 -0.0005565246690565519
0.3962746859 -0.09699654579 -7.51766690309082e-05 -0.0005663623043090853
0.4015961289 -0.09699654579 -6.209278573948125e-05 -0.0005757330890217829
0.4069176018 -0.09699654579 -4.9239387435067414e-05 -0.0005847147830497563
0.4122390449 -0.09699654579 -3.403649607171819e-05 -0.0005899063714842665
0.4175605178 -0.09699654579 -1.583525092667824e-05 -0.0005900561110734791
0.4228819609 -0.09699654579 1.2441306867165185e-06 -0.0005902197524781009
0.4282034338 -0.09699654579 1.7839497605424347e-05 -0.0005903801117341633
0.4335248768 -0.09699654579 3.4596683752966015e-05 -0.0005905606711643405
0.4388463497 -0.09699654579 5.0909541872710036e-05 -0.0005878352180541633
0.4441677928 -0.09699654579 6.414768126165596e-05 -0.0005791396854040228
0.4494892657 -0.09699654579 7.734865568432334e-05 -0.000570615530458511
0.4548107088 -0.09699654579 9.073147236153566e-05 -0.0005621363102421385
0.4601321816 -0.09699654579 0.00010392656289253024 -0.0005537427697282275
0.4654536247 -0.09699654579 0.00011303433047259128 -0.0005445387251051752
0.4707750976 -0.09699654579 0.0001179397176699028 -0.0005327846248050859
0.4760965407 -0.09699654579 0.00012295755142637842 -0.0005206119419134454
0.4814180136 -0.09699654579 0.00012791597388367228 -0.0005088441005049207
0.4867394567 -0.09699654579 0.0001327192258746955 -0.0004977219968862753
0.4920609295 -0.09699654579 0.0001329619158829974 -0.0004864910873854663
0.4973823726 -0.09699654579 0.00013193317283152783 -0.0004752113584858674
0.5027038455 -0.09699654579 0.00013084767480748077 -0.00046423699704976494
0.5080252886 -0.09699654579 0.00012987587512458505 -0.0004532453711178834
0.5133467317 -0.09699654579 0.00012696475789475474 -0.00044232306961890146
0.5186682343 -0.09699654579 0.00012187594255965506 -0.00043149451296765337
0.5239896774 -0.09699654579 0.0001168704706346928 -0.0004213616390342488
0.5293111205 -0.09699654579 0.00011176836629096885 -0.0004108592345382052
0.5346325636 -0.09699654579 0.00010447725426059779 -0.0004005738442773986
0.5399540663 -0.09699654579 9.449301448054155e-05 -0.0003913838490122083
0.5452755094 -0.09699654579 8.4793524704344e-05 -0.00038256422857117946
0.5505969524 -0.09699654579 7.472440771012313e-05 -0.00037335153268898435
0.5559183955 -0.09699654579 6.128298762598711e-05 -0.00036601694540757697
0.5612398982 -0.09699654579 4.7089089598020554e-05 -0.00035997949591063533
0.5665613413 -0.09699654579 3.277127055298622e-05 -0.00035394083008129386
0.5718827844 -0.09699654579 1.6674234834219663e-05 -0.0003485906522296579
0.5772042274 -0.09699654579 -1.0463808907269861e-06 -0.0003460138174546932
0.5825257301 -0.09699654579 -1.8757348107406016e-05 -0.0003434351429879102
0.5878471732 -0.09699654579 -3.7801960633677015e-05 -0.00034171974883761544
0.5931686163 -0.09699654579 -5.791245611316742e-05 -0.00034258958494824964
0.5984900594 -0.09699654579 -7.835207616893888e-05 -0.0003433258713522784
0.6038115621 -0.09699654579 -9.950487440501889e-05 -0.00034649698992011106
0.6091330051 -0.09699654579 -0.0001216032720377165 -0.0003509830905335428
0.6144544482 -0.09699654579 -0.0001435880472868096 -0.00035649139284021133
0.6197758913 -0.09699654579 -0.00016695604204626995 -0.00036513953929372025
0.625097394 -0.09699654579 -0.00019029742073386888 -0.00037449506995091824
0.6304188371 -0.09699654579 -0.000214045425772897 -0.00038627420937838104
0.6357402802 -0.09699654579 -0.00023855907976141278 -0.00039935009443395147
0.6410617828 -0.09699654579 -0.0002626793968334232 -0.0004148660354806603
0.6463832259 -0.09699654579 -0.00028658313494526176 -0.00043244386567093995
0.651704669 -0.09699654579 -0.0003104642370176879 -0.00045208569584889144
0.6570261121 -0.09699654579 -0.00033299538729520154 -0.0004744098392758058
0.6623476148 -0.09699654579 -0.0003551752758066534 -0.0004983359187277851
0.6676690578 -0.09699654579 -0.00037729689569404785 -0.0005237382925188845
0.6729905009 -0.09699654579 -0.00039824160894061676 -0.0005518735555332005
0.678311944 -0.09699654579 -0.00041823461370923894 -0.0005821123049364581
0.6836334467 -0.09699654579 -0.0004367301994285407 -0.0006138499104827558
0.6889548898 -0.09699654579 -0.00045374249616509906 -0.0006480794819602275
0.6942763329 -0.09699654579 -0.00046834400755683633 -0.0006835269637478674
0.6995977759 -0.09699654579 -0.00048178480652143104 -0.0007208189971909622
0.7049192786 -0.09699654579 -0.0004935024897699896 -0.0007596836411807497
0.7102407217 -0.09699654579 -0.0005031300018771619 -0.0007997605994632537
0.7155621648 -0.09699654579 -0.0005101640787595925 -0.0008412536711150748
0.7208836079 -0.09699654579 -0.0005153619237794266 -0.0008833742818003819
0.7262051105 -0.09699654579 -0.0005187518340135549 -0.0009263205167099459
0.7315265536 -0.09699654579 -0.000519673391741049 -0.0009703602476684781
0.7368479967 -0.09699654579 -0.0005190115337929045 -0.0010135987693108575
0.7421694398 -0.09699654579 -0.0005164076441412915 -0.0010576609612559574
0.7474909425 -0.09699654579 -0.0005125618011428435 -0.0011018091473411322
0.7528123856 -0.09699654579 -0.0005065694983129518 -0.0011462655233044315
0.7581338286 -0.09699654579 -0.0004993719357038401 -0.0011918967950534272
-0.3008363545 -0.09367749095 0.0006624778756038958 -0.0006328233437548207
-0.2955148816 -0.09367749095 0.0006734236792028777 -0.0006236121682679602
-0.2901934385 -0.09367749095 0.0006855207979250884 -0.0006138174009641932
-0.2848719656 -0.09367749095 0.0006977754470119774 -0.0005986245762616496
-0.2795505226 -0.09367749095 0.0007091279547826203 -0.0005792745200720048