VARIABLES = X,Y,phix,phiy
ZONE I=200,J=200,F=POINT 
-0.3008363545 -0.1003156006 -0.00014633479044379166 5.618809335688192e-05
-0.2955148816 -0.1003156006 -0.00014859436285137175 7.759547449711948e-05
-0.2901934385 -0.1003156006 -0.00014960877552948408 8.586450857539102e-05
-0.2848719656 -0.1003156006 -0.00015052647451735583 9.410441654524507e-05
-0.2795505226 -0.1003156006 -0.00015260242210076035 9.958094118684908e-05
-0.2742290497 -0.1003156006 -0.0001545913945252452 0.00010081202150709763
-0.2689076066 -0.1003156006 -0.00015928276847791535 0.00010320103874921326
-0.2635861337 -0.1003156006 -0.0001879709040101108 0.00011495068349328339
-0.2582646906 -0.1003156006 -0.0002304760617754452 0.00012877315780919686
-0.2529432178 -0.1003156006 -0.0002774205497460399 0.00014176408437348667
-0.2476217598 -0.1003156006 -0.0003287935395317267 0.00015425506109954118
-0.2423003018 -0.1003156006 -0.00035135063265865555 0.00015556453263791448
-0.2369788438 -0.1003156006 -0.00035557219476269503 0.0001488559467919069
-0.2316573858 -0.1003156006 -0.0003610871933451134 0.000137513202455516
-0.2263359278 -0.1003156006 -0.00036325403918781584 0.00012140123031685982
-0.2210144699 -0.1003156006 -0.0003649343774104178 0.00010759514269874818
-0.2156930119 -0.1003156006 -0.00036655714036671515 9.304705049569732e-05
-0.2103715539 -0.1003156006 -0.00036609222920447906 7.534662589256019e-05
-0.2050500959 -0.1003156006 -0.00037357524913771687 6.732885484317916e-05
-0.1997286379 -0.1003156006 -0.000382211618494865 6.154371613315243e-05
-0.19440718 -0.1003156006 -0.0003915953971211769 5.6939419845057664e-05
-0.189085722 -0.1003156006 -0.0003842630847921435 5.3468036356773946e-05
-0.183764264 -0.1003156006 -0.0003712709894480797 5.1385291665207804e-05
-0.178442806 -0.1003156006 -0.0003585713386388777 4.764475760909249e-05
-0.173121348 -0.1003156006 -0.00035564039005882086 4.861133921253477e-05
-0.16779989 -0.1003156006 -0.00035520057959266435 5.015921489506097e-05
-0.1624784321 -0.1003156006 -0.0003545600079455805 5.343734905217036e-05
-0.1571569741 -0.1003156006 -0.0003556891775122649 5.5647958519049164e-05
-0.1518355161 -0.1003156006 -0.0003570527807574507 5.669132977160417e-05
-0.1465140581 -0.1003156006 -0.0003580271204416702 5.7501771645621875e-05
-0.1411926001 -0.1003156006 -0.00035728967783901365 5.6732397337550664e-05
-0.1358711421 -0.1003156006 -0.00035393127306276043 5.244931210756417e-05
-0.1305496842 -0.1003156006 -0.0003505531057563012 4.816652364233129e-05
-0.1252282262 -0.1003156006 -0.0003469107359338304 4.392545082441932e-05
-0.1199067682 -0.1003156006 -0.00034432612925654166 4.132547215413557e-05
-0.1145853102 -0.1003156006 -0.0003423763113172024 3.913316677027506e-05
-0.1092638522 -0.1003156006 -0.00034082895182529317 3.7465943086119765e-05
-0.1039423943 -0.1003156006 -0.0003391876966463184 3.577087834946923e-05
-0.09862093627 -0.1003156006 -0.0003405479486267279 3.575790840795861e-05
-0.09329947084 -0.1003156006 -0.00034225595973651294 3.562217190753966e-05
-0.08797801286 -0.1003156006 -0.0003438819382131243 3.5484898369260196e-05
-0.08265655488 -0.1003156006 -0.00034513758252600446 3.5334751402824406e-05
-0.0773350969 -0.1003156006 -0.0003430842095294079 3.409640888544369e-05
-0.07201363891 -0.1003156006 -0.00034108630914028606 3.288355726368025e-05
-0.06669218093 -0.1003156006 -0.0003389504398503512 3.167184070909027e-05
-0.06137072667 -0.1003156006 -0.00033660271012783883 3.010009088597262e-05
-0.05604926869 -0.1003156006 -0.0003317748044603702 2.8509111637656816e-05
-0.05072781071 -0.1003156006 -0.0003265040789481397 2.6906412813449338e-05
-0.045406349 -0.1003156006 -0.00032129674288305834 2.5309999761583132e-05
-0.04008489102 -0.1003156006 -0.0003159065653735017 2.365686116211875e-05
-0.03476343304 -0.1003156006 -0.00030992004230335644 2.142783897956496e-05
-0.02944197692 -0.1003156006 -0.00030263708451307 1.773566771418674e-05
-0.02412051894 -0.1003156006 -0.00029540225943004895 1.3935644617761294e-05
-0.01879905909 -0.1003156006 -0.00028812392152831654 9.979057959045384e-06
-0.01347760204 -0.1003156006 -0.0002808941467967822 6.1928021825067255e-06
-0.00815614406 -0.1003156006 -0.0002718028283700568 3.8083539512999316e-06
-0.00283468538 -0.1003156006 -0.0002611571107515341 2.4564121460113936e-06
0.002486772602 -0.1003156006 -0.0002501905986077014 9.941050518444585e-07
0.007808230817 -0.1003156006 -0.00023932513107338514 -4.6569638635605063e-07
0.0131296888 -0.1003156006 -0.0002285513618363985 -1.8336538897651166e-06
0.01845114678 -0.1003156006 -0.0002194170514395368 1.1264835341091225e-06
0.02377260476 -0.1003156006 -0.00021136405606577295 7.465449512671451e-06
0.02909406275 -0.1003156006 -0.0002032179067923136 1.4188679445763412e-05
0.03441552073 -0.1003156006 -0.00019512112758037896 2.0911034163766593e-05
0.03973697871 -0.1003156006 -0.00018712022986668776 2.730027786788216e-05
0.04505843669 -0.1003156006 -0.0001821472962831191 3.2441485262586756e-05
0.05037989467 -0.1003156006 -0.00018269672416090438 3.576411610646404e-05
0.05570135266 -0.1003156006 -0.00018361728602310411 3.937280975057433e-05
0.06102281436 -0.1003156006 -0.00018467258389320121 4.3042722906155746e-05
0.06634426862 -0.1003156006 -0.00018534547691726703 4.645454451093769e-05
0.0716657266 -0.1003156006 -0.0001857720531900395 4.971289793108955e-05
0.07698718458 -0.1003156006 -0.00018587131874546218 4.3739343676532026e-05
0.08230864257 -0.1003156006 -0.00018595067159039958 3.692282276539968e-05
0.08763010055 -0.1003156006 -0.000186538576652349 2.988541123102839e-05
0.09295155853 -0.1003156006 -0.00018666079117418856 2.3074818952608713e-05
0.09827301651 -0.1003156006 -0.00018656003838045314 1.6396102445156596e-05
0.1035944745 -0.1003156006 -0.00018217175175547006 7.291409637845916e-06
0.1089159325 -0.1003156006 -0.00016840207417861863 -6.735778691819778e-06
0.1142373979 -0.1003156006 -0.00015475617829799687 -2.075984958772984e-05
0.1195588559 -0.1003156006 -0.00014096241135878892 -3.357629953791023e-05
0.1248803139 -0.1003156006 -0.00012719929830314826 -4.6821329255130286e-05
0.1302017719 -0.1003156006 -0.00011349692891623785 -6.036007771526594e-05
0.1355232298 -0.1003156006 -9.105014803473274e-05 -6.890283235422813e-05
0.1408446878 -0.1003156006 -6.254472208549452e-05 -7.339029667017131e-05
0.1461661458 -0.1003156006 -3.4853105925313646e-05 -7.729584222728256e-05
0.1514876038 -0.1003156006 -7.150403914401644e-06 -8.120051260871204e-05
0.1568090618 -0.1003156006 2.0545905920222435e-05 -8.510507116472394e-05
0.1621305197 -0.1003156006 4.826712735056265e-05 -8.89813035559037e-05
0.1674519777 -0.1003156006 7.668482495731475e-05 -8.281591727960642e-05
0.1727734357 -0.1003156006 0.00010547186582623382 -7.237137749522024e-05
0.1780948937 -0.1003156006 0.00013431839715324505 -6.193323460769802e-05
0.1834163517 -0.1003156006 0.0001630921453221355 -5.149127374150579e-05
0.1887378097 -0.1003156006 0.0001917347239809489 -4.119555844617555e-05
0.1940592676 -0.1003156006 0.00021954621585210213 -3.109859975720989e-05
0.1993807256 -0.1003156006 0.00024496769657179267 -1.7655442361540793e-05
0.2047021836 -0.1003156006 0.00026973136135953355 -3.286906689022476e-06
0.2100236416 -0.1003156006 0.00029447446216732104 1.1183102812597784e-05
0.2153450996 -0.1003156006 0.0003190405404031135 2.5709968908012332e-05
0.2206665576 -0.1003156006 0.0003434913003486273 4.0185873392701913e-05
0.2259880155 -0.1003156006 0.00036797359163144415 5.4617214603041476e-05
0.2313094735 -0.1003156006 0.000393747348681819 7.497439232869993e-05
0.2366309315 -0.1003156006 0.0004193033311544186 9.718328589320502e-05
0.2419523895 -0.1003156006 0.00044456546158646356 0.00011926262069747696
0.2472738475 -0.1003156006 0.0004699654011570956 0.0001413008773257691
0.2525953054 -0.1003156006 0.0004952379885294681 0.00016323460960687822
0.2579167783 -0.1003156006 0.000519958394764424 0.00018517772602167002
0.2632382214 -0.1003156006 0.0005411022946732546 0.0002153920447502229
0.2685596943 -0.1003156006 0.0005617907471478814 0.0002479985990713482
0.2738811374 -0.1003156006 0.0005828195562584253 0.00028090044993321996
0.2792026103 -0.1003156006 0.0006034780352339973 0.0003135371552199844
0.2845240533 -0.1003156006 0.0006231728253648913 0.00034567516654241683
0.2898455262 -0.1003156006 0.0006429674702916265 0.00037781794360080233
0.2951669693 -0.1003156006 0.000653726371760558 0.0004180933711599943
0.3004884422 -0.1003156006 0.0006629305401156031 0.0004594520025690336
0.3058098853 -0.1003156006 0.0006710019515246376 0.00049927674092299
0.3111313581 -0.1003156006 0.0006791240857291704 0.000539099539119908
0.3164528012 -0.1003156006 0.0006871024027521926 0.000578911516371248
0.3217742741 -0.1003156006 0.0006949534649623208 0.0006186951596115799
0.3270957172 -0.1003156006 0.0006805230378676056 0.0006600164638586305
0.3324171901 -0.1003156006 0.0006658942879368515 0.0007013653492982597
0.3377386332 -0.1003156006 0.0006513262663318669 0.0007427109028298767
0.343060106 -0.1003156006 0.0006368192406122103 0.0007840723371975569
0.3483815491 -0.1003156006 0.0006235954247573288 0.000822449331395185
0.353703022 -0.1003156006 0.0006037755035105458 0.0008535904067930199
0.3590244651 -0.1003156006 0.0005692556443918276 0.0008682344157770431
0.364345938 -0.1003156006 0.0005346650188706562 0.0008829195044500991
0.369667381 -0.1003156006 0.0005042575550706385 0.0008972784685798836
0.3749888539 -0.1003156006 0.0004729498858108694 0.0009117917670265991
0.380310297 -0.1003156006 0.0004408330277199226 0.000926182165112552
0.3856317699 -0.1003156006 0.00041769036252104164 0.0009153634520015164
0.390953213 -0.1003156006 0.0004003213261355976 0.0008996492195101597
0.3962746859 -0.1003156006 0.0003833045120896991 0.0008840483304461374
0.4015961289 -0.1003156006 0.00036610391644724546 0.0008685312194492863
0.4069176018 -0.1003156006 0.0003493406638915061 0.0008533413870670708
0.4122390449 -0.1003156006 0.00034556560469205147 0.0008384387821722532
0.4175605178 -0.1003156006 0.00035801445117799837 0.0008194867691525009
0.4228819609 -0.1003156006 0.00037089034406523135 0.0007993669846948383
0.4282034338 -0.1003156006 0.0003835525022921854 0.0007795125942346641
0.4335248768 -0.1003156006 0.00039596632399133537 0.0007624712186127192
0.4388463497 -0.1003156006 0.00041248853985334527 0.0007471956067530909
0.4441677928 -0.1003156006 0.0004408321030023891 0.0007376498252423741
0.4494892657 -0.1003156006 0.0004686152780940929 0.0007282965721988008
0.4548107088 -0.1003156006 0.0004957476398233502 0.0007199515866656101
0.4601321816 -0.1003156006 0.0005235530154208744 0.0007110631880709234
0.4654536247 -0.1003156006 0.000554085263484263 0.0007036499376140872
0.4707750976 -0.1003156006 0.0005884042062887326 0.0006993771726633538
0.4760965407 -0.1003156006 0.0006227187859769451 0.0006962419623674361
0.4814180136 -0.1003156006 0.0006570092115034201 0.0006931126132296742
0.4867394567 -0.1003156006 0.0006913208659133701 0.0006898831809404121
0.4920609295 -0.1003156006 0.000733473022817048 0.0006893920428605903
0.4973823726 -0.1003156006 0.0007775872894180859 0.0006904955537514083
0.5027038455 -0.1003156006 0.000821801526937621 0.0006915682626250851
0.5080252886 -0.1003156006 0.0008658711252720033 0.0006926136306975504
0.5133467317 -0.1003156006 0.000913713776848771 0.0006995341313391299
0.5186682343 -0.1003156006 0.0009694572641596582 0.0007104271158150785
0.5239896774 -0.1003156006 0.0010254442356202149 0.0007212049192750888
0.5293111205 -0.1003156006 0.0010806754454803843 0.0007324443704134923
0.5346325636 -0.1003156006 0.0011368325697605098 0.0007500342741175619
0.5399540663 -0.1003156006 0.001198420369069842 0.0007739296080074518
0.5452755094 -0.1003156006 0.0012612024846611098 0.000797483856081401
0.5505969524 -0.1003156006 0.0013218281789343265 0.0008216706826510074
0.5559183955 -0.1003156006 0.0013833982412819951 0.0008549965302324511
0.5612398982 -0.1003156006 0.0014489834399485106 0.0008914462503506648
0.5665613413 -0.1003156006 0.0015140206514845436 0.0009278667334439672
0.5718827844 -0.1003156006 0.00157676640072107 0.0009685076368687918
0.5772042274 -0.1003156006 0.00164262466160582 0.0010158215798251897
0.5825257301 -0.1003156006 0.0017090634539539981 0.001063173933026316
0.5878471732 -0.1003156006 0.0017732983802520913 0.0011145763449725138
0.5931686163 -0.1003156006 0.0018391942170004536 0.0011718940584432348
0.5984900594 -0.1003156006 0.0019053443002967573 0.0012286986078141424
0.6038115621 -0.1003156006 0.001972342736309621 0.001292849927131803
0.6091330051 -0.1003156006 0.002038598199216685 0.0013584370861325888
0.6144544482 -0.1003156006 0.0021072786675743354 0.001429126670056824
0.6197758913 -0.1003156006 0.0021744336247770304 0.0015041052991152139
0.625097394 -0.1003156006 0.002242046464818564 0.0015826943727341408
0.6304188371 -0.1003156006 0.002311396023261195 0.001668044645423147
0.6357402802 -0.1003156006 0.0023776494375365434 0.0017563716839408207
0.6410617828 -0.1003156006 0.0024450073107867313 0.0018509543505356315
0.6463832259 -0.1003156006 0.002512497162398885 0.0019495603914171271
0.651704669 -0.1003156006 0.0025804857100775913 0.002052165593193829
0.6570261121 -0.1003156006 0.0026448794447211203 0.002162226604335093
0.6623476148 -0.1003156006 0.002709737308411188 0.002278300232603126
0.6676690578 -0.1003156006 0.0027734706784227955 0.002399194736223792
0.6729905009 -0.1003156006 0.002834250938164277 0.0025300626257688365
0.678311944 -0.1003156006 0.0028919062557581404 0.0026656348736316363
0.6836334467 -0.1003156006 0.0029483706116060155 0.0028078529095989695
0.6889548898 -0.1003156006 0.0030016304243971523 0.002958829071657137
0.6942763329 -0.1003156006 0.0030511106635987824 0.0031186284109978738
0.6995977759 -0.1003156006 0.0030967193907386484 0.0032856000528601113
0.7049192786 -0.1003156006 0.0031377175014423264 0.003458425801248041
0.7102407217 -0.1003156006 0.0031723311632040154 0.0036409662356665655
0.7155621648 -0.1003156006 0.003199184547474539 0.0038319422679513417
0.7208836079 -0.1003156006 0.003217945124566475 0.0040301799542666475
0.7262051105 -0.1003156006 0.0032292960069863616 0.004236329838055626
0.7315265536 -0.1003156006 0.0032298029657819916 0.004449382134102676
0.7368479967 -0.1003156006 0.0032175183711837547 0.004673085422595449
0.7421694398 -0.1003156006 0.003194028895993575 0.004902543277935752
0.7474909425 -0.1003156006 0.003160682441127358 0.00513026336294796
0.7528123856 -0.1003156006 0.003109777924517873 0.005367807425501481
0.7581338286 -0.1003156006 0.0030457877197267885 0.005609252909844987
-0.3008363545 -0.09699654579 -0.0001337146109346028 5.445464030445254e-05
-0.2955148816 -0.09699654579 -0.00013678988157475187 8.109748478540075e-05
-0.2901934385 -0.09699654579 -0.00014025461963197748 9.985970644375046e-05
-0.2848719656 -0.09699654579 -0.0001416045175011476 0.00010701894424333281
-0.2795505226 -0.09699654579 -0.00014506652584926727 0.0001139542882923042
-0.2742290497 -0.09699654579 -0.0001485585095567324 0.00011778601770926099
-0.2689076066 -0.09699654579 -0.00015430371149248307 0.00011946577755024214
-0.2635861337 -0.09699654579 -0.00017194631519332497 0.0001235296264081405
-0.2582646906 -0.09699654579 -0.00021512257600283814 0.00013883825273095892
-0.2529432178 -0.09699654579 -0.00026470271937822205 0.00015201533643089974
-0.2476217598 -0.09699654579 -0.0003210511356301126 0.00016351242770992666
-0.2423003018 -0.09699654579 -0.0003642708869692488 0.00016860899889024485
-0.2369788438 -0.09699654579 -0.0003721860293262404 0.0001611787361429424
-0.2316573858 -0.09699654579 -0.0003755488051025758 0.00014637412872939724
-0.2263359278 -0.09699654579 -0.0003780889234569482 0.00012926421671913838
-0.2210144699 -0.09699654579 -0.0003799701408385488 0.00011476459032443228
-0.2156930119 -0.09699654579 -0.00037951584476854757 9.725296948847665e-05
-0.2103715539 -0.09699654579 -0.00037834367913508444 7.97601025138793e-05
-0.2050500959 -0.09699654579 -0.0003845089667461927 7.095896314660622e-05
-0.1997286379 -0.09699654579 -0.0003939062422653492 6.641339967647959e-05
-0.19440718 -0.09699654579 -0.0004040735665190617 6.000901111382732e-05
-0.189085722 -0.09699654579 -0.0003975193767471134 5.342191310839439e-05
-0.183764264 -0.09699654579 -0.0003847145664302826 4.823108908252483e-05
-0.178442806 -0.09699654579 -0.00036934350589395325 4.519435244241828e-05
-0.173121348 -0.09699654579 -0.00036436135351399564 4.6199519133526676e-05
-0.16779989 -0.09699654579 -0.0003633415052585642 4.98797946633299e-05
-0.1624784321 -0.09699654579 -0.00036211081376169015 5.277186553519209e-05
-0.1571569741 -0.09699654579 -0.000362289507442645 5.5847301365021075e-05
-0.1518355161 -0.09699654579 -0.0003625636573195298 5.567035923111581e-05
-0.1465140581 -0.09699654579 -0.0003609653945048882 5.5639338646404105e-05
-0.1411926001 -0.09699654579 -0.0003585976723201095 5.4213142531193666e-05
-0.1358711421 -0.09699654579 -0.00035481649235424265 4.9983773123923055e-05
-0.1305496842 -0.09699654579 -0.0003508312181842488 4.5731034340706236e-05
-0.1252282262 -0.09699654579 -0.0003460974095876054 4.1566361617956026e-05
-0.1199067682 -0.09699654579 -0.00034333703315288905 3.9900327634954615e-05
-0.1145853102 -0.09699654579 -0.000341314836310821 3.8277868494808635e-05
-0.1092638522 -0.09699654579 -0.0003394434468751284 3.7091917503737314e-05
-0.1039423943 -0.09699654579 -0.0003380914695339592 3.665846718748626e-05
-0.09862093627 -0.09699654579 -0.000339439544139074 3.636204361846747e-05
-0.09329947084 -0.09699654579 -0.00034103918307294186 3.59260216477807e-05
-0.08797801286 -0.09699654579 -0.00034278534991083275 3.535324734645653e-05
-0.08265655488 -0.09699654579 -0.0003441730085643807 3.4950182918661245e-05
-0.0773350969 -0.09699654579 -0.0003417429441331237 3.328239768402349e-05
-0.07201363891 -0.09699654579 -0.0003390311300166078 3.135366579228994e-05
-0.06669218093 -0.09699654579 -0.00033636560026897985 2.9406600397259103e-05
-0.06137072667 -0.09699654579 -0.000333442723228836 2.7359098493475054e-05
-0.05604926869 -0.09699654579 -0.0003281280889306047 2.5551326645527036e-05
-0.05072781071 -0.09699654579 -0.00032242914684180586 2.381470148900558e-05
-0.045406349 -0.09699654579 -0.000316742828260384 2.207772441170819e-05
-0.04008489102 -0.09699654579 -0.00031095352158926076 2.0311519599822298e-05
-0.03476343304 -0.09699654579 -0.000304598223053474 1.7808669493313235e-05
-0.02944197692 -0.09699654579 -0.000297406515979766 1.3463806753200963e-05
-0.02412051894 -0.09699654579 -0.00029025342504005575 9.17965786740932e-06
-0.01879905909 -0.09699654579 -0.00028310325966758435 4.842924666681222e-06
-0.01347760204 -0.09699654579 -0.0002759411632057728 3.9568995113382353e-07
-0.00815614406 -0.09699654579 -0.00026673383900383424 -2.3725869273097227e-06
-0.00283468538 -0.09699654579 -0.0002555919791157582 -3.901782447375663e-06
0.002486772602 -0.09699654579 -0.00024439591943407196 -5.454432960024638e-06
0.007808230817 -0.09699654579 -0.00023310341578743047 -7.0275715949091284e-06
0.0131296888 -0.09699654579 -0.00022201390446993473 -8.571128651129605e-06
0.01845114678 -0.09699654579 -0.0002124630744250289 -5.045692218834345e-06
0.02377260476 -0.09699654579 -0.00020434473626336722 2.221661379282146e-06
0.02909406275 -0.09699654579 -0.0001959795047577064 9.813606774033015e-06
0.03441552073 -0.09699654579 -0.00018763486039856815 1.7471355784348176e-05
0.03973697871 -0.09699654579 -0.0001794029401176744 2.474882706529234e-05
0.04505843669 -0.09699654579 -0.00017480801040076191 3.075992205932986e-05
0.05037989467 -0.09699654579 -0.00017650970367987868 3.481231074355646e-05
0.05570135266 -0.09699654579 -0.0001783516586183236 3.89171441468235e-05
0.06102281436 -0.09699654579 -0.0001804910758089697 4.321757966546048e-05
0.06634426862 -0.09699654579 -0.00018208742779851658 4.72080915559364e-05
0.0716657266 -0.09699654579 -0.00018382667030004686 5.119497813670166e-05
0.07698718458 -0.09699654579 -0.00018550505578807477 4.423081308957713e-05
0.08230864257 -0.09699654579 -0.00018726169062695258 3.651437226319205e-05
0.08763010055 -0.09699654579 -0.0001887572865642528 2.8978807933826435e-05
0.09295155853 -0.09699654579 -0.00019009957622296458 2.1476211603912804e-05
0.09827301651 -0.09699654579 -0.00019156486753940972 1.3917661626291017e-05
0.1035944745 -0.09699654579 -0.00018796162941530517 3.3409977842775234e-06
0.1089159325 -0.09699654579 -0.00017455986246387502 -1.2768949672739621e-05
0.1142373979 -0.09699654579 -0.00016089978412627944 -2.8108098812572358e-05
0.1195588559 -0.09699654579 -0.00014708212560624368 -4.289971396369016e-05
0.1248803139 -0.09699654579 -0.0001332857704261485 -5.768767365494594e-05
0.1302017719 -0.09699654579 -0.00011965268290427756 -7.293766002050701e-05
0.1355232298 -0.09699654579 -9.561225889443858e-05 -8.269585939093905e-05
0.1408446878 -0.09699654579 -6.567897405927209e-05 -8.778332904158654e-05
0.1461661458 -0.09699654579 -3.5841573217980926e-05 -9.28784169812433e-05
0.1514876038 -0.09699654579 -6.321188718560363e-06 -9.799115702562744e-05
0.1568090618 -0.09699654579 2.3264060254644938e-05 -0.0001031063182150821
0.1621305197 -0.09699654579 5.212608346665064e-05 -0.00010784260712130409
0.1674519777 -0.09699654579 8.15861947901447e-05 -0.00010114831941977893
0.1727734357 -0.09699654579 0.00011142448506653613 -9.045777626267418e-05
0.1780948937 -0.09699654579 0.00014165393749134678 -7.958116494595496e-05
0.1834163517 -0.09699654579 0.00017179984355131177 -6.879742632628803e-05
0.1887378097 -0.09699654579 0.00020108731307422824 -5.822445785211096e-05
0.1940592676 -0.09699654579 0.00023045049104382647 -4.7657099958709795e-05
0.1993807256 -0.09699654579 0.0002566191111538129 -3.406596816250925e-05
0.2047021836 -0.09699654579 0.0002819871154857085 -1.9806054412995126e-05
0.2100236416 -0.09699654579 0.0003073309378987259 -5.387359461651848e-06
0.2153450996 -0.09699654579 0.00033252111233349484 8.95852382007534e-06
0.2206665576 -0.09699654579 0.0003577444717364485 2.3296776484390883e-05
0.2259880155 -0.09699654579 0.00038298945483574505 3.762816837844862e-05
0.2313094735 -0.09699654579 0.00040944070873278314 5.8503757270086684e-05
0.2366309315 -0.09699654579 0.0004361576709263779 8.068868005573105e-05
0.2419523895 -0.09699654579 0.00046301547775359385 0.00010287462394187238
0.2472738475 -0.09699654579 0.0004897626913169928 0.00012506415727971915
0.2525953054 -0.09699654579 0.0005159696537083575 0.0001473228626146276
0.2579167783 -0.09699654579 0.0005416568917207028 0.0001694383088530036
0.2632382214 -0.09699654579 0.0005646731111436529 0.00020105354078051819
0.2685596943 -0.09699654579 0.0005871904159052306 0.00023483595326390292
0.2738811374 -0.09699654579 0.0006090330418479169 0.00026826949388976623
0.2792026103 -0.09699654579 0.0006302546362016232 0.0003014272413603949
0.2845240533 -0.09699654579 0.0006514708165297528 0.0003345889515919357
0.2898455262 -0.09699654579 0.0006731347391152519 0.00036796432173439946
0.2951669693 -0.09699654579 0.0006849633739133454 0.00041046442713690964
0.3004884422 -0.09699654579 0.0006948221427216341 0.0004529886198172918
0.3058098853 -0.09699654579 0.000704502206501192 0.0004953620544635319
0.3111313581 -0.09699654579 0.0007142695407496834 0.0005377402714699528
0.3164528012 -0.09699654579 0.0007236138440137495 0.0005793875675529903
0.3217742741 -0.09699654579 0.0007308196137817687 0.0006201651647921888
0.3270957172 -0.09699654579 0.0007144591308331476 0.0006649034249616684
0.3324171901 -0.09699654579 0.000698141725842518 0.0007096417393583286
0.3377386332 -0.09699654579 0.0006824546510385485 0.0007530889092989862
0.343060106 -0.09699654579 0.0006672284298682676 0.0007953898481609586
0.3483815491 -0.09699654579 0.0006515896401851629 0.0008379297546914882
0.353703022 -0.09699654579 0.0006270707891714278 0.000871237551480724
0.3590244651 -0.09699654579 0.0005873687637338023 0.0008861522847917306
0.364345938 -0.09699654579 0.0005503640907096776 0.0009005457051225292
0.369667381 -0.09699654579 0.0005134170617838959 0.0009150828771435473
0.3749888539 -0.09699654579 0.0004767465588343743 0.0009299489564068883
0.380310297 -0.09699654579 0.0004424397910334216 0.0009447335705465534
0.3856317699 -0.09699654579 0.00041965647956533245 0.0009326146412423842
0.390953213 -0.09699654579 0.00039922093443085994 0.0009130929845137079
0.3962746859 -0.09699654579 0.0003778459167242271 0.0008921109452700086
0.4015961289 -0.09699654579 0.00035810894670699437 0.0008736240445886426
0.4069176018 -0.09699654579 0.00033970933896891695 0.0008563482991614114
0.4122390449 -0.09699654579 0.0003348434047648543 0.0008363676125290875
0.4175605178 -0.09699654579 0.00034833732464906083 0.0008131514474356992
0.4228819609 -0.09699654579 0.00036089101202679017 0.0007924474203653478
0.4282034338 -0.09699654579 0.00037359330445634276 0.0007724280092473441
0.4335248768 -0.09699654579 0.00038617723431467983 0.0007522523141186901
0.4388463497 -0.09699654579 0.0004036361875425017 0.0007335955906221516
0.4441677928 -0.09699654579 0.0004321553229293566 0.0007230704598136767
0.4494892657 -0.09699654579 0.0004608557539835104 0.0007126322099345995
0.4548107088 -0.09699654579 0.0004898529699026679 0.0007022186574818102
0.4601321816 -0.09699654579 0.0005183863751205971 0.000692014963448966
0.4654536247 -0.09699654579 0.0005489822416016491 0.0006847245889955225
0.4707750976 -0.09699654579 0.0005835283474830592 0.0006796606046192196
0.4760965407 -0.09699654579 0.0006182869178639173 0.0006738718899988634
0.4814180136 -0.09699654579 0.000652868741289564 0.0006687504990871883
0.4867394567 -0.09699654579 0.0006874140225796449 0.0006646198080905529
0.4920609295 -0.09699654579 0.0007306265239889022 0.0006630534088635882
0.4973823726 -0.09699654579 0.0007761493041372775 0.0006621831210911528
0.5027038455 -0.09699654579 0.0008208989923596219 0.0006622471158667304
0.5080252886 -0.09699654579 0.000866047493169838 0.0006620551298569441
0.5133467317 -0.09699654579 0.0009171756715372377 0.0006660639386915368
0.5186682343 -0.09699654579 0.0009750833932343277 0.000675518327246315
0.5239896774 -0.09699654579 0.0010311984231079578 0.0006864606208448947
0.5293111205 -0.09699654579 0.0010880999803784118 0.0006967193496632854
0.5346325636 -0.09699654579 0.00114942169241733 0.0007118802108110464
0.5399540663 -0.09699654579 0.0012130686492731742 0.0007353356995135447
0.5452755094 -0.09699654579 0.0012758713510421787 0.0007590004594038654
0.5505969524 -0.09699654579 0.001339550968551189 0.0007824636648176651
0.5559183955 -0.09699654579 0.001406470058146761 0.000814891871391654
0.5612398982 -0.09699654579 0.001472336729191328 0.0008512066556385948
0.5665613413 -0.09699654579 0.0015380336169264195 0.0008875198814276234
0.5718827844 -0.09699654579 0.0016064811991695967 0.0009276551333336879
0.5772042274 -0.09699654579 0.0016733436746700615 0.0009747626779092097
0.5825257301 -0.09699654579 0.0017401321496944998 0.0010218596353572008
0.5878471732 -0.09699654579 0.0018092568202470818 0.001072656069600004
0.5931686163 -0.09699654579 0.0018765138983549247 0.0011295971804352112
0.5984900594 -0.09699654579 0.001945305361879519 0.0011869026261426157
0.6038115621 -0.09699654579 0.002013995193437476 0.001250311194640547
0.6091330051 -0.09699654579 0.0020838251005210234 0.0013172433790137276
0.6144544482 -0.09699654579 0.0021528503278689494 0.0013865764292587295
0.6197758913 -0.09699654579 0.002223006834014305 0.0014627238453752962
0.625097394 -0.09699654579 0.002292421746280786 0.0015403932247169702
0.6304188371 -0.09699654579 0.0023636752518164206 0.001626067461793654
0.6357402802 -0.09699654579 0.002436676930990014 0.0017138042446125763
0.6410617828 -0.09699654579 0.002505971450388436 0.001806511682900954
0.6463832259 -0.09699654579 0.002577696761254637 0.0019059279537077976
0.651704669 -0.09699654579 0.0026486703850230604 0.0020095329187208213
0.6570261121 -0.09699654579 0.0027172862285063763 0.002121541033687673
0.6623476148 -0.09699654579 0.002784745253058373 0.00223784940597305
0.6676690578 -0.09699654579 0.0028518867438246664 0.002361664455434443
0.6729905009 -0.09699654579 0.002917162333751587 0.0024916432186137443
0.678311944 -0.09699654579 0.002981910557492069 0.0026285901012568897
0.6836334467 -0.09699654579 0.0030439906861739903 0.0027718152081504482
0.6889548898 -0.09699654579 0.0031008413696127285 0.0029237396678456263
0.6942763329 -0.09699654579 0.003155887426216889 0.0030856394679678657
0.6995977759 -0.09699654579 0.0032078789652690994 0.0032558995185031805
0.7049192786 -0.09699654579 0.0032532412190988736 0.0034327015188379893
0.7102407217 -0.09699654579 0.003291900801946348 0.003618398886688188
0.7155621648 -0.09699654579 0.003322411030684571 0.003814537133289197
0.7208836079 -0.09699654579 0.003347372907564057 0.00402099040177086
0.7262051105 -0.09699654579 0.003361944051880359 0.004234504643106025
0.7315265536 -0.09699654579 0.003368279706322621 0.004452204561575428
0.7368479967 -0.09699654579 0.0033624136650817803 0.004682029918397189
0.7421694398 -0.09699654579 0.0033419191762221454 0.004917199079257162
0.7474909425 -0.09699654579 0.003310081617821005 0.005159180317119235
0.7528123856 -0.09699654579 0.0032618033943336523 0.005405507854648
0.7581338286 -0.09699654579 0.0031985559746885235 0.005653512468051594
-0.3008363545 -0.09367749095 -0.00012060695513799371 5.2990053907418696e-05
-0.2955148816 -0.09367749095 -0.00012347626634933692 8.127366468262791e-05
-0.2901934385 -0.09367749095 -0.0001296924181327776 0.00010933786531695612
-0.2848719656 -0.09367749095 -0.00013453040081170525 0.0001234223813861976
-0.2795505226 -0.09367749095 -0.00013750416400645736 0.00012990154155606397
-0.2742290497 -0.09367749095 -0.00014385072347260428 0.00013516526372119028
-0.2689076066 -0.09367749095 -0.00015048270187701177 0.0001387928631937898
-0.2635861337 -0.09367749095 -0.00016262420187072667 0.0001391158255249144
-0.2582646906 -0.09367749095 -0.00020126877735343176 0.000148474080452187
-0.2529432178 -0.09367749095 -0.0002537201331282926 0.0001631798040686631
-0.2476217598 -0.09367749095 -0.00031112284821601326 0.00017515432627031172