VARIABLES = X,Y,phix,phiy
ZONE I=200,J=200,F=POINT 
-0.3008363545 -0.1003156006 -0.008556882311093325 0.00871176240367899
-0.2955148816 -0.1003156006 -0.008793504707442574 0.00871919769320318
-0.2901934385 -0.1003156006 -0.009020425578868655 0.008699224549655193
-0.2848719656 -0.1003156006 -0.009255880815712044 0.008676656889486177
-0.2795505226 -0.1003156006 -0.009506888272062553 0.008635203268671314
-0.2742290497 -0.1003156006 -0.009769139104822432 0.008568517548172064
-0.2689076066 -0.1003156006 -0.010046464865962714 0.008495992965798184
-0.2635861337 -0.1003156006 -0.010286142264915116 0.008399842109974853
-0.2582646906 -0.1003156006 -0.010528621679285251 0.00827302366143914
-0.2529432178 -0.1003156006 -0.010775420152960808 0.00812976139199252
-0.2476217598 -0.1003156006 -0.011030982145507667 0.00797344687974246
-0.2423003018 -0.1003156006 -0.011250450734619829 0.007796457446010512
-0.2369788438 -0.1003156006 -0.01145012697061515 0.0075991758982718455
-0.2316573858 -0.1003156006 -0.011656634182795134 0.007385267362799701
-0.2263359278 -0.1003156006 -0.011848563951791598 0.007157436954200122
-0.2210144699 -0.1003156006 -0.01199205835275337 0.006923180261899851
-0.2156930119 -0.1003156006 -0.01213624720604156 0.006678371003610068
-0.2103715539 -0.1003156006 -0.012273280281687745 0.006417776435829267
-0.2050500959 -0.1003156006 -0.012357578561816884 0.00617547535695057
-0.1997286379 -0.1003156006 -0.01244024577027672 0.005923637822448471
-0.19440718 -0.1003156006 -0.01251502722288419 0.005659746910089453
-0.189085722 -0.1003156006 -0.01255343010207852 0.00542373105595227
-0.183764264 -0.1003156006 -0.01257818444588268 0.005180945452854426
-0.178442806 -0.1003156006 -0.012604042712198118 0.00493684348306633
-0.173121348 -0.1003156006 -0.012600014241327256 0.004712772829033129
-0.16779989 -0.1003156006 -0.012593856699041249 0.004496171931389305
-0.1624784321 -0.1003156006 -0.012579904672715646 0.004274430379481939
-0.1571569741 -0.1003156006 -0.012553561344365444 0.004074423301062778
-0.1518355161 -0.1003156006 -0.012515684038410519 0.0038829655884309866
-0.1465140581 -0.1003156006 -0.012475725629661821 0.0036907861242824907
-0.1411926001 -0.1003156006 -0.01243212984496937 0.0035075545928917023
-0.1358711421 -0.1003156006 -0.012378573798803869 0.00334370218766277
-0.1305496842 -0.1003156006 -0.012325017490676512 0.003179849783042516
-0.1252282262 -0.1003156006 -0.012267467075629184 0.003014711608743333
-0.1199067682 -0.1003156006 -0.012205553538172542 0.0028717937268526103
-0.1145853102 -0.1003156006 -0.01214209595905247 0.0027338032855017597
-0.1092638522 -0.1003156006 -0.01207619687649933 0.0025954290135241803
-0.1039423943 -0.1003156006 -0.012011318739602875 0.0024589095971958306
-0.09862093627 -0.1003156006 -0.011944849512815575 0.0023438073499703785
-0.09329947084 -0.1003156006 -0.011875938937820608 0.002228826281048482
-0.08797801286 -0.1003156006 -0.01180702871415148 0.002113845370578399
-0.08265655488 -0.1003156006 -0.011738385679477182 0.002000137122141008
-0.0773350969 -0.1003156006 -0.011670385942382018 0.001904084693795428
-0.07201363891 -0.1003156006 -0.011602399764266138 0.0018081779462538138
-0.06669218093 -0.1003156006 -0.011534413676399681 0.0017122711912927254
-0.06137072667 -0.1003156006 -0.011464809327520364 0.0016165572166284337
-0.05604926869 -0.1003156006 -0.011397982321598511 0.0015340478919952717
-0.05072781071 -0.1003156006 -0.011331629596536474 0.0014541348417133747
-0.045406349 -0.1003156006 -0.011265819158701236 0.0013741516470677088
-0.04008489102 -0.1003156006 -0.011198774280341113 0.0012945075548607228
-0.03476343304 -0.1003156006 -0.011133270469222635 0.0012190492597486744
-0.02944197692 -0.1003156006 -0.011070155345311687 0.0011522175005540497
-0.02412051894 -0.1003156006 -0.011006733984530833 0.0010854757131203826
-0.01879905909 -0.1003156006 -0.010942903369071576 0.0010188365190907578
-0.01347760204 -0.1003156006 -0.010879499914330494 0.0009521085218555933
-0.00815614406 -0.1003156006 -0.010818568549608165 0.0008914136229606369
-0.00283468538 -0.1003156006 -0.010759077767104238 0.0008352050724821295
0.002486772602 -0.1003156006 -0.010698791274016588 0.0007793242392295649
0.007808230817 -0.1003156006 -0.010638503276464182 0.0007234299747305476
0.0131296888 -0.1003156006 -0.010578872853578681 0.0006672797413472265
0.01845114678 -0.1003156006 -0.010521733299402062 0.000616171755095818
0.02377260476 -0.1003156006 -0.010465913092536853 0.0005688180901464276
0.02909406275 -0.1003156006 -0.010409658764268064 0.0005216430757633159
0.03441552073 -0.1003156006 -0.010353404231277194 0.00047446805155576093
0.03973697871 -0.1003156006 -0.010297529745304785 0.0004271337180344438
0.04505843669 -0.1003156006 -0.010243346086630654 0.00038218447499688393
0.05037989467 -0.1003156006 -0.010191367351379625 0.0003416570500216829
0.05570135266 -0.1003156006 -0.010139040623035653 0.00030137273461314175
0.06102281436 -0.1003156006 -0.010086665247366454 0.0002610642046855396
0.06634426862 -0.1003156006 -0.010034553402482157 0.00022065404300936897
0.0716657266 -0.1003156006 -0.009982638319011545 0.00018010067236473077
0.07698718458 -0.1003156006 -0.009933870853450514 0.00014478911553571892
0.08230864257 -0.1003156006 -0.00988515169606215 0.00010984081387889847
0.08763010055 -0.1003156006 -0.009836216510062971 7.508439802267075e-05
0.09295155853 -0.1003156006 -0.009787471449975675 4.021046369859722e-05
0.09827301651 -0.1003156006 -0.009738857669705437 5.211399026006496e-06
0.1035944745 -0.1003156006 -0.009691240666771721 -2.8252690124116982e-05
0.1089159325 -0.1003156006 -0.009645249091557766 -5.854458050356519e-05
0.1142373979 -0.1003156006 -0.009599257792892026 -8.883651535762767e-05
0.1195588559 -0.1003156006 -0.009553594487460588 -0.00011924745892608121
0.1248803139 -0.1003156006 -0.009507809525527601 -0.00014956807308435225
0.1302017719 -0.1003156006 -0.009461951969897067 -0.0001799275930168411
0.1355232298 -0.1003156006 -0.009417600003508227 -0.0002079159397528429
0.1408446878 -0.1003156006 -0.009374268304754732 -0.00023412651694504054
0.1461661458 -0.1003156006 -0.009331150990668929 -0.00026053198450926766
0.1514876038 -0.1003156006 -0.009288033913497085 -0.0002869374360135034
0.1568090618 -0.1003156006 -0.009244916644421779 -0.000313342893115353
0.1621305197 -0.1003156006 -0.009201817512724449 -0.0003397520693293174
0.1674519777 -0.1003156006 -0.00916052472783243 -0.00036378026390754563
0.1727734357 -0.1003156006 -0.009119774030209209 -0.0003869482668574138
0.1780948937 -0.1003156006 -0.009079023675299166 -0.000410116279735311
0.1834163517 -0.1003156006 -0.009038272823870387 -0.00043328427511658927
0.1887378097 -0.1003156006 -0.008997620039258273 -0.00045644128019259333
0.1940592676 -0.1003156006 -0.008957145211079197 -0.00047978537285787174
0.1993807256 -0.1003156006 -0.008918076398367844 -0.0005010686234430887
0.2047021836 -0.1003156006 -0.008879348176807732 -0.0005216715595934299
0.2100236416 -0.1003156006 -0.008840628938192622 -0.0005422471905621446
0.2153450996 -0.1003156006 -0.00880212588017898 -0.0005628596886386655
0.2206665576 -0.1003156006 -0.008763534107916525 -0.0005835389080164038
0.2259880155 -0.1003156006 -0.008724941817017391 -0.0006042196569856492
0.2313094735 -0.1003156006 -0.008687496593605846 -0.0006230383578109164
0.2366309315 -0.1003156006 -0.008650471266870812 -0.0006413197202471551
0.2419523895 -0.1003156006 -0.008613497004083108 -0.0006596942682172696
0.2472738475 -0.1003156006 -0.008576543869236238 -0.0006780768432341571
0.2525953054 -0.1003156006 -0.008539567352463471 -0.0006964709888170195
0.2579167783 -0.1003156006 -0.008502710312135618 -0.0007148672266684179
0.2632382214 -0.1003156006 -0.008466923848750037 -0.00073177155811436
0.2685596943 -0.1003156006 -0.008431311905467755 -0.0007481782788561469
0.2738811374 -0.1003156006 -0.008395627966320915 -0.0007645941483384215
0.2792026103 -0.1003156006 -0.008360005122769317 -0.0007809908300492432
0.2845240533 -0.1003156006 -0.008324522981878933 -0.0007975155155389693
0.2898455262 -0.1003156006 -0.008289040628115505 -0.0008140402687301267
0.2951669693 -0.1003156006 -0.008254285662624686 -0.000829026431170731
0.3004884422 -0.1003156006 -0.00821963051848883 -0.0008437177175200294
0.3058098853 -0.1003156006 -0.008185133571852398 -0.000858516433769765
0.3111313581 -0.1003156006 -0.008150636336995917 -0.0008733152056263982
0.3164528012 -0.1003156006 -0.008116139294539224 -0.0008881139321164503
0.3217742741 -0.1003156006 -0.008081712551291042 -0.0009028410079115622
0.3270957172 -0.1003156006 -0.008047843519487594 -0.0009159913112917158
0.3324171901 -0.1003156006 -0.008013958568058454 -0.000929174412139454
0.3377386332 -0.1003156006 -0.007980073935139635 -0.0009423574754014643
0.343060106 -0.1003156006 -0.007946191393482465 -0.0009555339120286651
0.3483815491 -0.1003156006 -0.007912497807647882 -0.0009687319378106949
0.353703022 -0.1003156006 -0.007878927626014644 -0.0009814865143978884
0.3590244651 -0.1003156006 -0.007845530329924893 -0.0009931374187589844
0.364345938 -0.1003156006 -0.007812133423122745 -0.0010047862110699952
0.369667381 -0.1003156006 -0.007778914420008859 -0.001016425924343635
0.3749888539 -0.1003156006 -0.007745653301052803 -0.0010280540002405956
0.380310297 -0.1003156006 -0.007712364929048335 -0.0010397158058260418
0.3856317699 -0.1003156006 -0.007679119798997099 -0.001050238646865774
0.390953213 -0.1003156006 -0.007646045535682709 -0.0010603591886117032
0.3962746859 -0.1003156006 -0.007612991095031232 -0.00107049936443747
0.4015961289 -0.1003156006 -0.007579953261166536 -0.00108065331066923
0.4069176018 -0.1003156006 -0.007546900984642921 -0.001090810995009723
0.4122390449 -0.1003156006 -0.007514004208293109 -0.00110031936234856
0.4175605178 -0.1003156006 -0.007480950781290097 -0.0011088913908911177
0.4228819609 -0.1003156006 -0.007447829134746793 -0.0011174905742691499
0.4282034338 -0.1003156006 -0.007414710126973586 -0.0011260814207780872
0.4335248768 -0.1003156006 -0.007381821622183687 -0.0011346390695610115
0.4388463497 -0.1003156006 -0.007348851724651242 -0.0011427649742624662
0.4441677928 -0.1003156006 -0.0073156254670030865 -0.0011497097218433978
0.4494892657 -0.1003156006 -0.007282427292659711 -0.0011566345147737578
0.4548107088 -0.1003156006 -0.007249398961996874 -0.0011635149446437075
0.4601321816 -0.1003156006 -0.007216283759192698 -0.0011704316449899941
0.4654536247 -0.1003156006 -0.00718296672080598 -0.0011766824936081115
0.4707750976 -0.1003156006 -0.007149401240715792 -0.0011818602574600475
0.4760965407 -0.1003156006 -0.007116042592163601 -0.001186976418390325
0.4814180136 -0.1003156006 -0.007082683207890103 -0.001192092610985143
0.4867394567 -0.1003156006 -0.007049304066816245 -0.0011972023459457081
0.4920609295 -0.1003156006 -0.007015357901446663 -0.001200817450763765
0.4973823726 -0.1003156006 -0.0069814353308037405 -0.0012039853059269713
0.5027038455 -0.1003156006 -0.006947508034211299 -0.001207170009735751
0.5080252886 -0.1003156006 -0.0069135750709712835 -0.0012103558438517636
0.5133467317 -0.1003156006 -0.006879677724255965 -0.0012123987075933229
0.5186682343 -0.1003156006 -0.006845058400249466 -0.0012133265699178736
0.5239896774 -0.1003156006 -0.006810450593818154 -0.0012142604163358892
0.5293111205 -0.1003156006 -0.006775940261783239 -0.0012151586627543963
0.5346325636 -0.1003156006 -0.006741570536086537 -0.0012148448004231985
0.5399540663 -0.1003156006 -0.006706454757913322 -0.0012131839168573345
0.5452755094 -0.1003156006 -0.006671182903310317 -0.0012115539309438092
0.5505969524 -0.1003156006 -0.006636286069942632 -0.0012098676230939522
0.5559183955 -0.1003156006 -0.006601301689213302 -0.0012060486373731728
0.5612398982 -0.1003156006 -0.006565452272523755 -0.0012015609921051404
0.5665613413 -0.1003156006 -0.006529716890067147 -0.0011970707580732695
0.5718827844 -0.1003156006 -0.006494550069482448 -0.0011913796913411118
0.5772042274 -0.1003156006 -0.006458426615983138 -0.0011838213593918737
0.5825257301 -0.1003156006 -0.006422266405328979 -0.0011762571349977675
0.5878471732 -0.1003156006 -0.006386449025404848 -0.0011673742468505217
0.5931686163 -0.1003156006 -0.006350160725648688 -0.0011566418273142385
0.5984900594 -0.1003156006 -0.006313682263644027 -0.001146135623785941
0.6038115621 -0.1003156006 -0.006276927641768385 -0.0011328691482747363
0.6091330051 -0.1003156006 -0.006240477225600173 -0.0011190733698556055
0.6144544482 -0.1003156006 -0.00620348960819005 -0.0011032937453442318
0.6197758913 -0.1003156006 -0.0061669460356983214 -0.0010857220283442405
0.625097394 -0.1003156006 -0.006130675838501317 -0.0010668048028858277
0.6304188371 -0.1003156006 -0.006094326106673578 -0.00104498611897309
0.6357402802 -0.1003156006 -0.0060591773565189105 -0.0010219597263198678
0.6410617828 -0.1003156006 -0.006023999194091276 -0.0009967048650662861
0.6463832259 -0.1003156006 -0.0059893446806388115 -0.0009691867284966395
0.651704669 -0.1003156006 -0.005955065217181602 -0.0009400821015382946
0.6570261121 -0.1003156006 -0.00592293703565024 -0.0009078558584633553
0.6623476148 -0.1003156006 -0.005891653634021107 -0.0008733219334963636
0.6676690578 -0.1003156006 -0.005861138937770096 -0.000836395784076509
0.6729905009 -0.1003156006 -0.005833353672578057 -0.0007958051816630862
0.678311944 -0.1003156006 -0.005807549847171184 -0.0007533761279592101
0.6836334467 -0.1003156006 -0.005783340311690517 -0.0007082206536253011
0.6889548898 -0.1003156006 -0.0057619191608177765 -0.0006598134584403147
0.6942763329 -0.1003156006 -0.005743777107841089 -0.0006086337715915076
0.6995977759 -0.1003156006 -0.005728530365481713 -0.0005549621800612001
0.7049192786 -0.1003156006 -0.005716777675279203 -0.0004989102344940363
0.7102407217 -0.1003156006 -0.005709525297029662 -0.00044027976256344806
0.7155621648 -0.1003156006 -0.005707296998214398 -0.00037920017224471594
0.7208836079 -0.1003156006 -0.005710035112611176 -0.00031686295050817846
0.7262051105 -0.1003156006 -0.005717897699696426 -0.00025319098766861967
0.7315265536 -0.1003156006 -0.0057316348436183715 -0.00018814251583966867
0.7368479967 -0.1003156006 -0.005753790357073724 -0.00012243025994365311
0.7421694398 -0.1003156006 -0.005781800738389533 -5.602581524410762e-05
0.7474909425 -0.1003156006 -0.005815077894227599 7.271967761733239e-06
0.7528123856 -0.1003156006 -0.005856594338446439 7.008669862097714e-05
0.7581338286 -0.1003156006 -0.005905680452445013 0.00013078131868632953
-0.3008363545 -0.09699654579 -0.008539499307798225 0.00884905420604141
-0.2955148816 -0.09699654579 -0.008787574821831123 0.008866054930695522
-0.2901934385 -0.09699654579 -0.009038948137390602 0.008861659358078859
-0.2848719656 -0.09699654579 -0.009280236845353394 0.008832211741114598
-0.2795505226 -0.09699654579 -0.009536432119119361 0.00879482445958903
-0.2742290497 -0.09699654579 -0.00980388961106055 0.008737945292073912
-0.2689076066 -0.09699654579 -0.010089276558294617 0.008654459338831001
-0.2635861337 -0.09699654579 -0.01036519263073754 0.008557362714869544
-0.2582646906 -0.09699654579 -0.010613518620303602 0.008438384792113972
-0.2529432178 -0.09699654579 -0.010867474562408568 0.008289876931910297
-0.2476217598 -0.09699654579 -0.011130041592555425 0.008117410469119322
-0.2423003018 -0.09699654579 -0.011374843965397247 0.007931337799325547
-0.2369788438 -0.09699654579 -0.011583784987635333 0.0077301266484397025
-0.2316573858 -0.09699654579 -0.011787777231735387 0.0075048711584693156
-0.2263359278 -0.09699654579 -0.011997708609884269 0.007261929494492085
-0.2210144699 -0.09699654579 -0.012149471874450936 0.007021858174778044
-0.2156930119 -0.09699654579 -0.01228756176056191 0.0067627747502974865
-0.2103715539 -0.09699654579 -0.012428624754666705 0.006490435085719408
-0.2050500959 -0.09699654579 -0.012522106863915009 0.006231058126501936
-0.1997286379 -0.09699654579 -0.012596575153422798 0.005966632469664104
-0.19440718 -0.09699654579 -0.01266995334667277 0.005697694558492487
-0.189085722 -0.09699654579 -0.01270493719184241 0.005442174898509137
-0.183764264 -0.09699654579 -0.012730817081750603 0.005194320492715077
-0.178442806 -0.09699654579 -0.01274843105574735 0.004940405713851961
-0.173121348 -0.09699654579 -0.012745851922522715 0.0047114716865885855
-0.16779989 -0.09699654579 -0.012728745460173057 0.004487770215440253
-0.1624784321 -0.09699654579 -0.012711961867616198 0.004261670972202212
-0.1571569741 -0.09699654579 -0.012677907767900247 0.0040525392595952645
-0.1518355161 -0.09699654579 -0.012635969269067257 0.003858123130914489
-0.1465140581 -0.09699654579 -0.012591407189936406 0.0036618634660690844
-0.1411926001 -0.09699654579 -0.012543071591159376 0.003474711721569283
-0.1358711421 -0.09699654579 -0.012484751618709893 0.0033093251866797087
-0.1305496842 -0.09699654579 -0.012423671068461858 0.0031434510037881033
-0.1252282262 -0.09699654579 -0.012362991140006037 0.0029770902914763525
-0.1199067682 -0.09699654579 -0.012295676742663787 0.002831481377754749
-0.1145853102 -0.09699654579 -0.012228517482356337 0.0026927150462247727
-0.1092638522 -0.09699654579 -0.012160294825914212 0.002553727084855828
-0.1039423943 -0.09699654579 -0.012089624804804218 0.002415619016858175
-0.09862093627 -0.09699654579 -0.01201926473954852 0.002300414670886247
-0.09329947084 -0.09699654579 -0.011947711942012718 0.0021851600465130983
-0.08797801286 -0.09699654579 -0.011874856842936193 0.0020699271810327565
-0.08265655488 -0.09699654579 -0.011803533558953737 0.00195586465155385
-0.0773350969 -0.09699654579 -0.011733577744650805 0.0018601712505663366
-0.07201363891 -0.09699654579 -0.011662323537798459 0.001764768929684353
-0.06669218093 -0.09699654579 -0.01159110517877597 0.0016693615685202353
-0.06137072667 -0.09699654579 -0.011519603521463634 0.001573769609918769
-0.05604926869 -0.09699654579 -0.01145041776984202 0.0014914114695750284
-0.05072781071 -0.09699654579 -0.01138237628468416 0.0014118994688769005
-0.045406349 -0.09699654579 -0.011314334765713278 0.0013323874235802746
-0.04008489102 -0.09699654579 -0.011245524180315667 0.0012530703973404043
-0.03476343304 -0.09699654579 -0.01117778255585598 0.0011780948819756162
-0.02944197692 -0.09699654579 -0.011112855259929841 0.001111811132788247
-0.02412051894 -0.09699654579 -0.011048148616272999 0.001045403194855898
-0.01879905909 -0.09699654579 -0.010983245069494973 0.0009791147191049523
-0.01347760204 -0.09699654579 -0.010918008564412662 0.0009129551528337176
-0.00815614406 -0.09699654579 -0.010855493101374588 0.0008528273481006114
-0.00283468538 -0.09699654579 -0.01079459429714763 0.0007971667008887021
0.002486772602 -0.09699654579 -0.010733399765599517 0.0007416517395957193
0.007808230817 -0.09699654579 -0.010672165101641602 0.0006861362905349205
0.0131296888 -0.09699654579 -0.010611135205240051 0.0006305434144532484
0.01845114678 -0.09699654579 -0.01055280443738524 0.0005800400162663504
0.02377260476 -0.09699654579 -0.01049604299527731 0.000533122040835705
0.02909406275 -0.09699654579 -0.010438950344746737 0.00048641511802134294
0.03441552073 -0.09699654579 -0.01038181395344521 0.0004397175855574059
0.03973697871 -0.09699654579 -0.01032503973313437 0.00039281618744425287
0.04505843669 -0.09699654579 -0.010269922315806214 0.00034846612235799
0.05037989467 -0.09699654579 -0.010217138588227419 0.0003084034924983308
0.05570135266 -0.09699654579 -0.010164272045269698 0.0002684448153644132
0.06102281436 -0.09699654579 -0.010111197674534113 0.0002285964119499994
0.06634426862 -0.09699654579 -0.01005847145695491 0.00018850884607998582
0.0716657266 -0.09699654579 -0.01000574538830834 0.00014842126757304421
0.07698718458 -0.09699654579 -0.009956391618221738 0.00011359317564914105
0.08230864257 -0.09699654579 -0.009907037597097795 7.902545652072251e-05
0.08763010055 -0.09699654579 -0.009857773850735175 4.447853137464336e-05
0.09295155853 -0.09699654579 -0.009808529318283838 9.910343416896393e-06
0.09827301651 -0.09699654579 -0.009759276326267812 -2.4708644887537002e-05
0.1035944745 -0.09699654579 -0.009711112430535934 -5.77084105485077e-05
0.1089159325 -0.09699654579 -0.009664583707764286 -8.767264338659302e-05
0.1142373979 -0.09699654579 -0.0096182376489665 -0.00011768114636553251
0.1195588559 -0.09699654579 -0.009572034481304774 -0.0001478307277788422
0.1248803139 -0.09699654579 -0.00952583081630017 -0.00017798030599669833
0.1302017719 -0.09699654579 -0.009479504811926156 -0.00020797205317786926
0.1355232298 -0.09699654579 -0.009434740195593252 -0.00023550936968177845
0.1408446878 -0.09699654579 -0.0093911539043635 -0.0002615613094283457
0.1461661458 -0.09699654579 -0.009347590137904978 -0.0002876519281876209
0.1514876038 -0.09699654579 -0.009304002563675601 -0.00031375592626939667
0.1568090618 -0.09699654579 -0.009260411139880692 -0.0003398601415116252
0.1621305197 -0.09699654579 -0.009216985613292695 -0.0003659979857688154
0.1674519777 -0.09699654579 -0.00917547722854795 -0.0003898676506538361
0.1727734357 -0.09699654579 -0.009134479860456231 -0.0004127927254631782
0.1780948937 -0.09699654579 -0.009093380535127227 -0.00043565957016442763
0.1834163517 -0.09699654579 -0.009052320487867301 -0.00045851255548846556
0.1887378097 -0.09699654579 -0.009011465948620529 -0.00048158004878865964
0.1940592676 -0.09699654579 -0.008970611146826707 -0.0005046475563413432
0.1993807256 -0.09699654579 -0.008931266352785868 -0.0005256104330671153
0.2047021836 -0.09699654579 -0.008892220196735273 -0.0005459903821290341
0.2100236416 -0.09699654579 -0.00885338487861746 -0.0005664309295110411
0.2153450996 -0.09699654579 -0.00881455950802553 -0.0005869499881153158
0.2206665576 -0.09699654579 -0.008775734531117189 -0.0006074689669129117
0.2259880155 -0.09699654579 -0.00873690896229644 -0.0006279378042565143
0.2313094735 -0.09699654579 -0.0086994108757767 -0.0006464880403796566
0.2366309315 -0.09699654579 -0.008662132582975794 -0.0006646797030329279
0.2419523895 -0.09699654579 -0.008624854293796645 -0.0006828713463000185
0.2472738475 -0.09699654579 -0.008587575915590078 -0.0007010629815139293
0.2525953054 -0.09699654579 -0.008550429130094564 -0.000719264995751035
0.2579167783 -0.09699654579 -0.00851336844219101 -0.0007375860317653649
0.2632382214 -0.09699654579 -0.008477346242818387 -0.0007542493065853228
0.2685596943 -0.09699654579 -0.008441477087974178 -0.0007705557574083598
0.2738811374 -0.09699654579 -0.008405700594669205 -0.0007868525858177485
0.2792026103 -0.09699654579 -0.008370016355215516 -0.0008032577552793862
0.2845240533 -0.09699654579 -0.008334322505791912 -0.000819592840907511
0.2898455262 -0.09699654579 -0.008298572558856134 -0.0008359561976793603
0.2951669693 -0.09699654579 -0.008263672612776878 -0.0008507414165943005
0.3004884422 -0.09699654579 -0.008228930757228513 -0.0008654295048690507
0.3058098853 -0.09699654579 -0.00819416795574504 -0.0008801255111413646
0.3111313581 -0.09699654579 -0.00815940443273079 -0.0008948216436640827
0.3164528012 -0.09699654579 -0.008124719631500242 -0.000909497415707609
0.3217742741 -0.09699654579 -0.008090206019784696 -0.0009241839962279092
0.3270957172 -0.09699654579 -0.008056135208808546 -0.0009372991704527988
0.3324171901 -0.09699654579 -0.008022064405793894 -0.0009504144309240646
0.3377386332 -0.09699654579 -0.007988066340486584 -0.0009635004701759443
0.343060106 -0.09699654579 -0.007954127237739795 -0.000976613412923953
0.3483815491 -0.09699654579 -0.007920169337753451 -0.000989756896411241
0.353703022 -0.09699654579 -0.00788633613809038 -0.0010023791846792685
0.3590244651 -0.09699654579 -0.007852746722679988 -0.0010139568544686422
0.364345938 -0.09699654579 -0.00781925894272106 -0.0010255776517557565
0.369667381 -0.09699654579 -0.007785789316227317 -0.0010372060319479403
0.3749888539 -0.09699654579 -0.007752308206723023 -0.0010488473029816128
0.380310297 -0.09699654579 -0.007718923202731889 -0.001060465260704784
0.3856317699 -0.09699654579 -0.007685677415558687 -0.0010709373711146116
0.390953213 -0.09699654579 -0.00765239210485657 -0.0010810635473802216
0.3962746859 -0.09699654579 -0.007619042207277097 -0.0010912156852375305
0.4015961289 -0.09699654579 -0.007585812004198258 -0.0011013406209752295
0.4069176018 -0.09699654579 -0.007552664433470436 -0.0011114841130718679
0.4122390449 -0.09699654579 -0.0075194434740260664 -0.0011209675770685798
0.4175605178 -0.09699654579 -0.007486099857547667 -0.0011295790344567928
0.4228819609 -0.09699654579 -0.007452910597430417 -0.0011381508676856597
0.4282034338 -0.09699654579 -0.007419783393199166 -0.0011467262090149113
0.4335248768 -0.09699654579 -0.007386644598910157 -0.0011552881206413252
0.4388463497 -0.09699654579 -0.007353300685917823 -0.00116341172057891
0.4441677928 -0.09699654579 -0.007319899895456552 -0.0011703597399602109
0.4494892657 -0.09699654579 -0.007286537416277411 -0.0011773330710677706
0.4548107088 -0.09699654579 -0.007253165480210348 -0.0011843138341262195
0.4601321816 -0.09699654579 -0.007219822312704425 -0.001191274084730277
0.4654536247 -0.09699654579 -0.007186492377977124 -0.0011974846298355188
0.4707750976 -0.09699654579 -0.0071527819412702705 -0.001202712671859944
0.4760965407 -0.09699654579 -0.0071189542638668574 -0.0012079960461702317
0.4814180136 -0.09699654579 -0.007085238617871824 -0.0012132267953373637
0.4867394567 -0.09699654579 -0.0070517028008201775 -0.0012184061711920438
0.4920609295 -0.09699654579 -0.007017567988706406 -0.0012220777272423813
0.4973823726 -0.09699654579 -0.006983275580335843 -0.0012253691880981623
0.5027038455 -0.09699654579 -0.006949101967714794 -0.001228589872494618
0.5080252886 -0.09699654579 -0.006914926074877653 -0.001231835533536703
0.5133467317 -0.09699654579 -0.006880343536642252 -0.0012340634789583277
0.5186682343 -0.09699654579 -0.006845337146432566 -0.001235095295887104
0.5239896774 -0.09699654579 -0.006810721150727994 -0.0012359971611148395
0.5293111205 -0.09699654579 -0.006775889851150297 -0.0012369637798605735
0.5346325636 -0.09699654579 -0.0067405598879480355 -0.0012368850081526353
0.5399540663 -0.09699654579 -0.006705054024954923 -0.0012352854374108498
0.5452755094 -0.09699654579 -0.006669778646120459 -0.0012336345996918098
0.5505969524 -0.09699654579 -0.006634259427231898 -0.0012320372343142755
0.5559183955 -0.09699654579 -0.00659804118895339 -0.0012284111272545396
0.5612398982 -0.09699654579 -0.006562218437106495 -0.0012239457884028995
0.5665613413 -0.09699654579 -0.006526364776271837 -0.0012194752068068722
0.5718827844 -0.09699654579 -0.0064896680933266915 -0.001213962084927553
0.5772042274 -0.09699654579 -0.006453249010125709 -0.0012064970511123682
0.5825257301 -0.09699654579 -0.006416822972824916 -0.001199031100489082
0.5878471732 -0.09699654579 -0.006379701119712138 -0.00119039376892102
0.5931686163 -0.09699654579 -0.006342839196497377 -0.0011797370098084361
0.5984900594 -0.09699654579 -0.006305532978168567 -0.0011689553239257618
0.6038115621 -0.09699654579 -0.006268338977606174 -0.0011559366561473693
0.6091330051 -0.09699654579 -0.006230552949339182 -0.0011415042847654356
0.6144544482 -0.09699654579 -0.0061933716125281155 -0.0011262487260716822
0.6197758913 -0.09699654579 -0.006155757518130641 -0.0011079681293755979
0.625097394 -0.09699654579 -0.00611838425405746 -0.0010890513341570106
0.6304188371 -0.09699654579 -0.006081223657343718 -0.0010673737589804158
0.6357402802 -0.09699654579 -0.0060434885070602806 -0.0010442849678549372
0.6410617828 -0.09699654579 -0.006007294776092633 -0.0010190313032043957
0.6463832259 -0.09699654579 -0.005971252835409168 -0.0009910943174395476
0.651704669 -0.09699654579 -0.005935664899464416 -0.0009610318019339343
0.6570261121 -0.09699654579 -0.005902124789436746 -0.000927693155319655
0.6623476148 -0.09699654579 -0.005869433990597766 -0.000892379422299259
0.6676690578 -0.09699654579 -0.005837565893812902 -0.0008546347276786704
0.6729905009 -0.09699654579 -0.00580766735646295 -0.0008136249235180907
0.678311944 -0.09699654579 -0.005779008278102907 -0.0007695954574256702
0.6836334467 -0.09699654579 -0.005752679254703903 -0.0007233610999106386
0.6889548898 -0.09699654579 -0.005729587727815884 -0.0006736538569422064
0.6942763329 -0.09699654579 -0.005709594444621281 -0.0006206348573213831
0.6995977759 -0.09699654579 -0.005692371707129384 -0.0005643699983210168
0.7049192786 -0.09699654579 -0.00567901260681564 -0.0005058812127964905
0.7102407217 -0.09699654579 -0.005670167413171921 -0.0004446455122065655
0.7155621648 -0.09699654579 -0.005667238059759441 -0.00038053735280899455
0.7208836079 -0.09699654579 -0.005669046477055847 -0.0003136429394586984
0.7262051105 -0.09699654579 -0.005676679102842507 -0.00024527836445344993
0.7315265536 -0.09699654579 -0.005690510610354056 -0.0001766464655508132
0.7368479967 -0.09699654579 -0.005710636530745811 -0.0001063961330578449
0.7421694398 -0.09699654579 -0.005739057866650406 -3.7101762991656044e-05
0.7474909425 -0.09699654579 -0.005773929874750283 3.241786984202463e-05
0.7528123856 -0.09699654579 -0.005817355242421839 9.920572923650686e-05
0.7581338286 -0.09699654579 -0.005867585232204829 0.00016362097186050145
-0.3008363545 -0.09367749095 -0.008519015551779365 0.008990844635557023
-0.2955148816 -0.09367749095 -0.008773981894678984 0.009017319767948383
-0.2901934385 -0.09367749095 -0.009049337440438416 0.009018502275796978
-0.2848719656 -0.09367749095 -0.00930746422858178 0.009002152931279584
-0.2795505226 -0.09367749095 -0.009564973392332827 0.008963000194581058
-0.2742290497 -0.09367749095 -0.009844291444812327 0.008904100141673406
-0.2689076066 -0.09367749095 -0.010130765455665837 0.008830062176739192
-0.2635861337 -0.09367749095 -0.010439169031560058 0.008726923573831641
-0.2582646906 -0.09367749095 -0.010703881169548533 0.008598515983630862
-0.2529432178 -0.09367749095 -0.010966470413442843 0.008452763897557255
-0.2476217598 -0.09367749095 -0.011233186043712744 0.008280386596294667
-0.2423003018 -0.09367749095 -0.01150980833533767 0.008077267643177287
-0.2369788438 -0.09367749095 -0.011721664167780607 0.007865296918073488
-0.2316573858 -0.09367749095 -0.011935971656927502 0.007632106141056238
-0.2263359278 -0.09367749095 -0.012141420649632412 0.00737257070584654