VARIABLES = X,Y,phix,phiy
ZONE I=200,J=200,F=POINT 
-0.3008363545 -0.1003156006 -0.0018127448178383583 0.003334876665086548
-0.2955148816 -0.1003156006 -0.0018436742025335193 0.0032875228067770356
-0.2901934385 -0.1003156006 -0.001869196650680534 0.0032320920421724745
-0.2848719656 -0.1003156006 -0.0018957231232660198 0.0031769905836642543
-0.2795505226 -0.1003156006 -0.0019238912914326868 0.003111338307294245
-0.2742290497 -0.1003156006 -0.0019515264429048143 0.003031856134186557
-0.2689076066 -0.1003156006 -0.0019797050587361926 0.0029506129032248747
-0.2635861337 -0.1003156006 -0.001995486658085224 0.002884550666153292
-0.2582646906 -0.1003156006 -0.0020093668149225893 0.00281650511974504
-0.2529432178 -0.1003156006 -0.0020195563183672167 0.002742236380042787
-0.2476217598 -0.1003156006 -0.00202531709151333 0.002668966645853606
-0.2423003018 -0.1003156006 -0.002017949823449736 0.002591240892158911
-0.2369788438 -0.1003156006 -0.002010387831098476 0.002507481144078267
-0.2316573858 -0.1003156006 -0.0020047878211932528 0.0024200398609340993
-0.2263359278 -0.1003156006 -0.001990389214172829 0.0023311667195757084
-0.2210144699 -0.1003156006 -0.0019780149906256195 0.002240346556300007
-0.2156930119 -0.1003156006 -0.001966457708119111 0.002144265817623816
-0.2103715539 -0.1003156006 -0.0019466026965792766 0.0020417379837973622
-0.2050500959 -0.1003156006 -0.0019161633698521025 0.0019546126985136086
-0.1997286379 -0.1003156006 -0.001894211718100408 0.0018646203264315513
-0.19440718 -0.1003156006 -0.0018644385362237498 0.0017718158204758153
-0.189085722 -0.1003156006 -0.0018208514043705538 0.001677804264455502
-0.183764264 -0.1003156006 -0.0017696339840859174 0.0015743267850669772
-0.178442806 -0.1003156006 -0.0017211705013638354 0.0014717472044433026
-0.173121348 -0.1003156006 -0.0016547251541070586 0.00138090185549581
-0.16779989 -0.1003156006 -0.0015869268742558218 0.0012936634865066989
-0.1624784321 -0.1003156006 -0.0015160601074769857 0.0012063707107628125
-0.1571569741 -0.1003156006 -0.0014423155550904528 0.0011346410793118351
-0.1518355161 -0.1003156006 -0.0013650440256911332 0.0010689937691330217
-0.1465140581 -0.1003156006 -0.0012856219489318721 0.001002692121538603
-0.1411926001 -0.1003156006 -0.0012061640835718064 0.0009426657614146058
-0.1358711421 -0.1003156006 -0.0011241867204262754 0.0008918261364086109
-0.1305496842 -0.1003156006 -0.001042210743012957 0.0008409891399909791
-0.1252282262 -0.1003156006 -0.0009563253129525936 0.000789925290815607
-0.1199067682 -0.1003156006 -0.0008725778348450534 0.0007486891609854168
-0.1145853102 -0.1003156006 -0.0007899414578899157 0.0007091250135811137
-0.1092638522 -0.1003156006 -0.0007051303308017592 0.0006702646332365109
-0.1039423943 -0.1003156006 -0.0006211167176844494 0.0006327133300003245
-0.09862093627 -0.1003156006 -0.0005448008329845926 0.0006046110817687871
-0.09329947084 -0.1003156006 -0.00046701628893598246 0.0005769087790878393
-0.08797801286 -0.1003156006 -0.0003892255319360058 0.0005492091495462072
-0.08265655488 -0.1003156006 -0.00031168671340861705 0.0005226652294394872
-0.0773350969 -0.1003156006 -0.0002367851645051085 0.0005070203943403375
-0.07201363891 -0.1003156006 -0.00016169877759477917 0.0004914597260049262
-0.06669218093 -0.1003156006 -8.669124180186424e-05 0.0004759022927614465
-0.06137072667 -0.1003156006 -1.0244853588428322e-05 0.0004604063989993188
-0.05604926869 -0.1003156006 6.222967195473269e-05 0.00045125109564994994
-0.05072781071 -0.1003156006 0.00013343269041345138 0.0004428908577377954
-0.045406349 -0.1003156006 0.00020406518904634714 0.0004343807574671395
-0.04008489102 -0.1003156006 0.00027627229380132364 0.0004262647149857749
-0.03476343304 -0.1003156006 0.00034656241733719623 0.000419780748329996
-0.02944197692 -0.1003156006 0.0004134402214954029 0.00041531526976114444
-0.02412051894 -0.1003156006 0.0004805979463822993 0.00041101391039438797
-0.01879905909 -0.1003156006 0.0005478943669000743 0.00040684397922805107
-0.01347760204 -0.1003156006 0.0006149969834704817 0.0004025338899116386
-0.00815614406 -0.1003156006 0.0006786651660100975 0.0004027657556876478
-0.00283468538 -0.1003156006 0.0007398012237866132 0.0004059494232582128
0.002486772602 -0.1003156006 0.0008017310352611033 0.00040955708443656674
0.007808230817 -0.1003156006 0.0008636915263499417 0.0004132075052432616
0.0131296888 -0.1003156006 0.000925022191252952 0.00041644398966420986
0.01845114678 -0.1003156006 0.0009832446567060345 0.00042445099510867693
0.02377260476 -0.1003156006 0.001039766297954905 0.00043584879354333425
0.02909406275 -0.1003156006 0.0010962882443861636 0.00044774858810633754
0.03441552073 -0.1003156006 0.001152999452397069 0.0004596497580683059
0.03973697871 -0.1003156006 0.0012093263245337102 0.00047111516997647173
0.04505843669 -0.1003156006 0.0012593463887309736 0.0004830249884774378
0.05037989467 -0.1003156006 0.0013025762739382431 0.0004946456748212673
0.05570135266 -0.1003156006 0.0013457845574285459 0.0005067110915796359
0.06102281436 -0.1003156006 0.0013889161743121112 0.0005186620020909246
0.06634426862 -0.1003156006 0.001432136088061115 0.000530359016992676
0.0716657266 -0.1003156006 0.0014753877493472421 0.000541889450752058
0.07698718458 -0.1003156006 0.0015202150618381875 0.000551473116701379
0.08230864257 -0.1003156006 0.001565127910591978 0.000560628451928038
0.08763010055 -0.1003156006 0.0016105747492741048 0.0005697746827082221
0.09295155853 -0.1003156006 0.001655769682119996 0.0005789968041688778
0.09827301651 -0.1003156006 0.0017005977928457152 0.0005882448609931924
0.1035944745 -0.1003156006 0.0017430901309039338 0.0006018600832172469
0.1089159325 -0.1003156006 0.001783160112873132 0.0006236561090455421
0.1142373979 -0.1003156006 0.0018234431233219636 0.0006454556406695166
0.1195588559 -0.1003156006 0.0018630213945608827 0.000666010121513764
0.1248803139 -0.1003156006 0.0019029587673431794 0.0006871530834494591
0.1302017719 -0.1003156006 0.0019427062748996952 0.0007083737309279931
0.1355232298 -0.1003156006 0.0019671953571185423 0.000727027655911064
0.1408446878 -0.1003156006 0.001981148954877097 0.0007432990558098368
0.1461661458 -0.1003156006 0.0019966413526701587 0.0007582799889623758
0.1514876038 -0.1003156006 0.002012194759744353 0.0007732600825572351
0.1568090618 -0.1003156006 0.0020277573355826288 0.000788240454326595
0.1621305197 -0.1003156006 0.0020432493779351996 0.0008032660732351697
0.1674519777 -0.1003156006 0.0020586208316047054 0.0007940629950870231
0.1727734357 -0.1003156006 0.0020737028114712684 0.0007744991813972795
0.1780948937 -0.1003156006 0.002088912341979073 0.0007549369227364697
0.1834163517 -0.1003156006 0.0021040291403677377 0.0007353742423436832
0.1887378097 -0.1003156006 0.002120059621155887 0.000716452655097853
0.1940592676 -0.1003156006 0.0021373757999847707 0.0006990430572120451
0.1993807256 -0.1003156006 0.002183731401068406 0.0006775938237233441
0.2047021836 -0.1003156006 0.002239354340642353 0.0006546336186400346
0.2100236416 -0.1003156006 0.002295012826937561 0.0006317354850255618
0.2153450996 -0.1003156006 0.0023496732200989365 0.0006114313263769332
0.2206665576 -0.1003156006 0.0024043694356406455 0.0005901968404479149
0.2259880155 -0.1003156006 0.0024590807436452914 0.0005689458974638774
0.2313094735 -0.1003156006 0.00253246797770794 0.0005694307413310697
0.2366309315 -0.1003156006 0.0026093369528161084 0.0005769807172137428
0.2419523895 -0.1003156006 0.0026851504781562996 0.0005846376909145743
0.2472738475 -0.1003156006 0.0027609273882504047 0.0005922914977684098
0.2525953054 -0.1003156006 0.0028368609050342442 0.0005997398807409064
0.2579167783 -0.1003156006 0.002911191762257362 0.0006078038196319576
0.2632382214 -0.1003156006 0.0029808273209441065 0.0006414848202174313
0.2685596943 -0.1003156006 0.003050227662061244 0.000681990089002849
0.2738811374 -0.1003156006 0.003120694891984607 0.0007229450610226854
0.2792026103 -0.1003156006 0.0031902315684208316 0.0007635176107629307
0.2845240533 -0.1003156006 0.0032572552228135295 0.0008028382472155276
0.2898455262 -0.1003156006 0.0033242494849547687 0.000842161752462222
0.2951669693 -0.1003156006 0.003370009748529135 0.0009014708906852165
0.3004884422 -0.1003156006 0.0034124470087797633 0.0009636027780405466
0.3058098853 -0.1003156006 0.0034534168898449537 0.001022902538242223
0.3111313581 -0.1003156006 0.0034943918493045636 0.0010822070601516
0.3164528012 -0.1003156006 0.003535433438736515 0.0011415031881451814
0.3217742741 -0.1003156006 0.003576078193088457 0.0012010120233021512
0.3270957172 -0.1003156006 0.003593013058218408 0.00126073179611942
0.3324171901 -0.1003156006 0.0036098552103840747 0.0013204432658655502
0.3377386332 -0.1003156006 0.0036267064731585518 0.0013801572726666828
0.343060106 -0.1003156006 0.0036436759529404734 0.0014398694775680544
0.3483815491 -0.1003156006 0.003660424089373816 0.0014976056592092633
0.353703022 -0.1003156006 0.0036723830594214846 0.0015560783140119775
0.3590244651 -0.1003156006 0.0036739183236004728 0.001616125687594499
0.364345938 -0.1003156006 0.0036755590808836528 0.0016761959337488683
0.369667381 -0.1003156006 0.003676648398191328 0.00173408274730494
0.3749888539 -0.1003156006 0.0036781352995993513 0.0017925951988219417
0.380310297 -0.1003156006 0.0036792571467499082 0.001851183984512501
0.3856317699 -0.1003156006 0.0036606581139131296 0.0019115567595682414
0.390953213 -0.1003156006 0.0036365123580703517 0.0019689286186771147
0.3962746859 -0.1003156006 0.0036125579064240146 0.0020255394042812624
0.4015961289 -0.1003156006 0.0035889955837145908 0.0020822807129722218
0.4069176018 -0.1003156006 0.0035664199329752872 0.0021393400996339174
0.4122390449 -0.1003156006 0.0035342297474820605 0.0021864167450645774
0.4175605178 -0.1003156006 0.0034851319350104825 0.0022245143308233226
0.4228819609 -0.1003156006 0.0034352130533125093 0.0022632456897899076
0.4282034338 -0.1003156006 0.0033851721977839477 0.002302079137134824
0.4335248768 -0.1003156006 0.003338797421030426 0.0023379340504119527
0.4388463497 -0.1003156006 0.0032882356382546354 0.0023660705532546644
0.4441677928 -0.1003156006 0.003226508913025297 0.0023738688722602383
0.4494892657 -0.1003156006 0.0031651142364751083 0.0023815423410632522
0.4548107088 -0.1003156006 0.00310728857626631 0.002388685328982618
0.4601321816 -0.1003156006 0.003047692002531624 0.002396131249576817
0.4654536247 -0.1003156006 0.0029888475472597126 0.002392389903400541
0.4707750976 -0.1003156006 0.002932294622068768 0.002371496608040488
0.4760965407 -0.1003156006 0.0028786947142330896 0.002351416921599896
0.4814180136 -0.1003156006 0.0028252019637367083 0.0023313294938856906
0.4867394567 -0.1003156006 0.0027712143454146046 0.002311053742269042
0.4920609295 -0.1003156006 0.0027247333764865893 0.0022748573747327543
0.4973823726 -0.1003156006 0.002681951954301977 0.0022351374799658825
0.5027038455 -0.1003156006 0.002639769095629127 0.0021955564468409757
0.5080252886 -0.1003156006 0.0025974710418549232 0.0021559767375392736
0.5133467317 -0.1003156006 0.0025640495345073434 0.002111344890121996
0.5186682343 -0.1003156006 0.002535258964537715 0.0020563373779503304
0.5239896774 -0.1003156006 0.002506475278327339 0.0020012857154591422
0.5293111205 -0.1003156006 0.0024783200532746824 0.0019469660117735236
0.5346325636 -0.1003156006 0.002459130652853366 0.0018905894716943089
0.5399540663 -0.1003156006 0.002447288605305872 0.0018264663341330486
0.5452755094 -0.1003156006 0.0024349416800432465 0.001761292341377607
0.5505969524 -0.1003156006 0.002423583741182645 0.0016984295752221475
0.5559183955 -0.1003156006 0.002425403764404633 0.0016346125369833178
0.5612398982 -0.1003156006 0.0024295472090528863 0.001566118353102849
0.5665613413 -0.1003156006 0.002434116807797062 0.001498178008626485
0.5718827844 -0.1003156006 0.002444771156673701 0.0014342110820810777
0.5772042274 -0.1003156006 0.0024639347811777684 0.0013678627004565205
0.5825257301 -0.1003156006 0.0024833433888433016 0.0013013459954852057
0.5878471732 -0.1003156006 0.0025069299141357543 0.0012379121186260036
0.5931686163 -0.1003156006 0.002538201889250397 0.0011750509775376313
0.5984900594 -0.1003156006 0.00256937756161865 0.0011121010110645602
0.6038115621 -0.1003156006 0.0026073754947010526 0.001052205406451171
0.6091330051 -0.1003156006 0.0026466289732372237 0.0009940736293664104
0.6144544482 -0.1003156006 0.002690764157167981 0.0009376253286694951
0.6197758913 -0.1003156006 0.0027377532347269123 0.0008852582144712527
0.625097394 -0.1003156006 0.002786635902952845 0.0008352613193914132
0.6304188371 -0.1003156006 0.0028388678725003278 0.0007894315448075932
0.6357402802 -0.1003156006 0.002891400756523316 0.0007472730070460255
0.6410617828 -0.1003156006 0.0029479357516990763 0.0007093831175240396
0.6463832259 -0.1003156006 0.0030057221479887885 0.0006744699604371351
0.651704669 -0.1003156006 0.0030645211840578685 0.0006426296791716644
0.6570261121 -0.1003156006 0.0031230014191071073 0.0006169653629554422
0.6623476148 -0.1003156006 0.003182269965459286 0.0005953011465234121
0.6676690578 -0.1003156006 0.003241651772577105 0.0005769856832567223
0.6729905009 -0.1003156006 0.0033008044041411316 0.0005649784492966033
0.678311944 -0.1003156006 0.003358231622150327 0.0005560566329453656
0.6836334467 -0.1003156006 0.0034156561995045253 0.000551190289445455
0.6889548898 -0.1003156006 0.00347244324041843 0.0005528885332140918
0.6942763329 -0.1003156006 0.003525593735096854 0.0005565658792695136
0.6995977759 -0.1003156006 0.0035768594374392406 0.0005651287774649962
0.7049192786 -0.1003156006 0.003626016595428996 0.000578880377458141
0.7102407217 -0.1003156006 0.0036728813245017616 0.0005988547142229986
0.7155621648 -0.1003156006 0.0037143323979952876 0.0006235652260333089
0.7208836079 -0.1003156006 0.003751096538136538 0.0006521777095412905
0.7262051105 -0.1003156006 0.003783732447490043 0.0006860259133258994
0.7315265536 -0.1003156006 0.0038095957262991725 0.0007269560761369912
0.7368479967 -0.1003156006 0.00382677014036449 0.000774528523148196
0.7421694398 -0.1003156006 0.0038362870480200145 0.0008278656001892675
0.7474909425 -0.1003156006 0.0038373471454684893 0.0008806372326847847
0.7528123856 -0.1003156006 0.0038226640769331685 0.0009434575119063119
0.7581338286 -0.1003156006 0.003796338953009768 0.001011831352106087
-0.3008363545 -0.09699654579 -0.0018257384028287328 0.003357344558072489
-0.2955148816 -0.09699654579 -0.0018669734900503528 0.0033117441342624234
-0.2901934385 -0.09699654579 -0.0018972547669157194 0.0032581423217645576
-0.2848719656 -0.09699654579 -0.0019238872502346498 0.0031991995345959853
-0.2795505226 -0.09699654579 -0.0019580254263048486 0.00313256435970106
-0.2742290497 -0.09699654579 -0.0019888592770255136 0.003057654931799456
-0.2689076066 -0.09699654579 -0.002016648785551402 0.0029719374234570815
-0.2635861337 -0.09699654579 -0.002036580976454618 0.002886604990076582
-0.2582646906 -0.09699654579 -0.0020572061301400717 0.0028198532184256844
-0.2529432178 -0.09699654579 -0.002066232518101262 0.0027464048030424472
-0.2476217598 -0.09699654579 -0.0020683127700181912 0.002671812136930397
-0.2423003018 -0.09699654579 -0.0020597195393558037 0.0025925178948905123
-0.2369788438 -0.09699654579 -0.002057508277768826 0.0025060958323641185
-0.2316573858 -0.09699654579 -0.002048499915707782 0.002417098539339341
-0.2263359278 -0.09699654579 -0.0020433808901530286 0.0023236872736625462
-0.2210144699 -0.09699654579 -0.002030829831050354 0.002229565120320542
-0.2156930119 -0.09699654579 -0.002011193803773488 0.00212900444289366
-0.2103715539 -0.09699654579 -0.002002111674298435 0.002026569225562842
-0.2050500959 -0.09699654579 -0.001979575025788289 0.001934666202290304
-0.1997286379 -0.09699654579 -0.001949497176526122 0.0018418163746839712
-0.19440718 -0.09699654579 -0.0019193985965451504 0.001749910466152681
-0.189085722 -0.09699654579 -0.0018752230654998014 0.0016487572686702064
-0.183764264 -0.09699654579 -0.001830070392747188 0.0015446642980614178
-0.178442806 -0.09699654579 -0.00177564028997921 0.0014332532560125649
-0.173121348 -0.09699654579 -0.0017099744811574717 0.0013403355611591732
-0.16779989 -0.09699654579 -0.0016372720636717995 0.001253189425348716
-0.1624784321 -0.09699654579 -0.0015677767205877424 0.0011644060613898181
-0.1571569741 -0.09699654579 -0.0014897677803515966 0.0010885063361178496
-0.1518355161 -0.09699654579 -0.001411867888985113 0.0010205772947280817
-0.1465140581 -0.09699654579 -0.0013320996748509715 0.0009530213829167344
-0.1411926001 -0.09699654579 -0.001249677717339628 0.0008903428725291232
-0.1358711421 -0.09699654579 -0.0011629731455033662 0.0008392958957591151
-0.1305496842 -0.09699654579 -0.0010730188221318607 0.0007880939148117069
-0.1252282262 -0.09699654579 -0.0009835668591983507 0.0007370220678642359
-0.1199067682 -0.09699654579 -0.0008954260639216649 0.0006959673773283842
-0.1145853102 -0.09699654579 -0.0008095874441306542 0.0006571223186951262
-0.1092638522 -0.09699654579 -0.0007233826818880354 0.0006187542230068954
-0.1039423943 -0.09699654579 -0.0006354456396206142 0.0005825612821004686
-0.09862093627 -0.09699654579 -0.0005573366504503645 0.0005553522203672283
-0.09329947084 -0.09699654579 -0.00047861071124480624 0.0005284530500647863
-0.08797801286 -0.09699654579 -0.00039914690119836145 0.0005019037681126703
-0.08265655488 -0.09699654579 -0.0003200217974737288 0.00047597488535494175
-0.0773350969 -0.09699654579 -0.000243389950426949 0.0004604052347897919
-0.07201363891 -0.09699654579 -0.00016540242977351204 0.00044516588197546155
-0.06669218093 -0.09699654579 -8.729597218708135e-05 0.00042993961372660735
-0.06137072667 -0.09699654579 -8.861078771843734e-06 0.0004142526188627419
-0.05604926869 -0.09699654579 6.630185808135926e-05 0.00040544795329502096
-0.05072781071 -0.09699654579 0.00013984670080233744 0.00039744992795738164
-0.045406349 -0.09699654579 0.00021339627383660742 0.00038944980955598967
-0.04008489102 -0.09699654579 0.00028753907272328406 0.00038183623930053266
-0.03476343304 -0.09699654579 0.0003598923768636695 0.00037613811775471574
-0.02944197692 -0.09699654579 0.00042778448089934 0.0003723363306686028
-0.02412051894 -0.09699654579 0.0004955176234426299 0.0003684401057790231
-0.01879905909 -0.09699654579 0.0005633536928056782 0.000364591849515481
-0.01347760204 -0.09699654579 0.0006313514958750462 0.0003608585843912226
-0.00815614406 -0.09699654579 0.0006957869638747489 0.0003618413841357514
-0.00283468538 -0.09699654579 0.0007579818678727715 0.0003658982089840325
0.002486772602 -0.09699654579 0.0008203550053584236 0.0003701675235592095
0.007808230817 -0.09699654579 0.0008826370628996904 0.0003743847174856172
0.0131296888 -0.09699654579 0.000944869862575491 0.0003785315035858362
0.01845114678 -0.09699654579 0.0010038087634370943 0.0003877823851113934
0.02377260476 -0.09699654579 0.0010605174848975364 0.0004003812339899147
0.02909406275 -0.09699654579 0.001117573873217582 0.0004135318827055916
0.03441552073 -0.09699654579 0.0011744130434895458 0.0004267291691727051
0.03973697871 -0.09699654579 0.0012313035360337397 0.00043941836383068494
0.04505843669 -0.09699654579 0.0012811109473614272 0.00045246358799135846
0.05037989467 -0.09699654579 0.0013236602501109599 0.0004647901979786122
0.05570135266 -0.09699654579 0.0013661859347023208 0.00047731354299105917
0.06102281436 -0.09699654579 0.001408218182181197 0.0004898817853632766
0.06634426862 -0.09699654579 0.001450904782046875 0.0005021225839443878
0.0716657266 -0.09699654579 0.0014935356501310532 0.0005143613728917787
0.07698718458 -0.09699654579 0.001539204111217664 0.0005237075229808994
0.08230864257 -0.09699654579 0.001585165150804757 0.0005326200123983149
0.08763010055 -0.09699654579 0.001631169688157905 0.0005417092942529865
0.09295155853 -0.09699654579 0.0016772449737473992 0.000550709751076583
0.09827301651 -0.09699654579 0.0017230380290547322 0.0005596743162682949
0.1035944745 -0.09699654579 0.0017667078767624699 0.0005742762817978668
0.1089159325 -0.09699654579 0.0018085808939882037 0.00059864080243394
0.1142373979 -0.09699654579 0.001850249058595775 0.0006222541161887474
0.1195588559 -0.09699654579 0.0018916775056168622 0.0006449445010465005
0.1248803139 -0.09699654579 0.0019330180926026533 0.0006676355755439364
0.1302017719 -0.09699654579 0.001974831624532886 0.000691239705213865
0.1355232298 -0.09699654579 0.0019974248325955505 0.0007121325925447046
0.1408446878 -0.09699654579 0.0020107377816483596 0.0007297180526630589
0.1461661458 -0.09699654579 0.0020239355421244162 0.0007472055920925285
0.1514876038 -0.09699654579 0.002036163386673452 0.0007647836140490993
0.1568090618 -0.09699654579 0.002048260051072118 0.0007823752233256978
0.1621305197 -0.09699654579 0.002061653454338978 0.0007991939481135491
0.1674519777 -0.09699654579 0.002074644537771362 0.0007869773877309672
0.1727734357 -0.09699654579 0.0020877656061718455 0.0007645166632035735
0.1780948937 -0.09699654579 0.0020996116797092363 0.0007410196774378702
0.1834163517 -0.09699654579 0.0021119184367203044 0.0007178331849266113
0.1887378097 -0.09699654579 0.002126544503266179 0.0006968866025497231
0.1940592676 -0.09699654579 0.0021412491036386138 0.0006759408806297092
0.1993807256 -0.09699654579 0.002190835168057977 0.0006500870744166066
0.2047021836 -0.09699654579 0.0022497031511851634 0.0006227011858332868
0.2100236416 -0.09699654579 0.0023077439463465837 0.0005981593824938824
0.2153450996 -0.09699654579 0.002365325805760029 0.0005739346349565598
0.2206665576 -0.09699654579 0.002422921114156661 0.0005497132451368758
0.2259880155 -0.09699654579 0.0024809905320282663 0.000525421587806954
0.2313094735 -0.09699654579 0.0025579315623709496 0.0005260370390400672
0.2366309315 -0.09699654579 0.0026386721398921733 0.0005324911294701408
0.2419523895 -0.09699654579 0.0027195136442699328 0.0005389351369679693
0.2472738475 -0.09699654579 0.0028003330598057167 0.0005453848367335147
0.2525953054 -0.09699654579 0.002879276234552195 0.0005524579895214379
0.2579167783 -0.09699654579 0.0029565814029379007 0.0005597705109784104
0.2632382214 -0.09699654579 0.003030650665925216 0.0005964317115529893
0.2685596943 -0.09699654579 0.0031042216610116845 0.0006391993858333731
0.2738811374 -0.09699654579 0.0031763727356010755 0.0006813009155605815
0.2792026103 -0.09699654579 0.0032465630489625016 0.0007224733365756917
0.2845240533 -0.09699654579 0.0033172294145544594 0.0007639056335454479
0.2898455262 -0.09699654579 0.0033886211429569714 0.0008056435769303585
0.2951669693 -0.09699654579 0.0034349853560027305 0.0008689850109254071
0.3004884422 -0.09699654579 0.003477971218958155 0.0009327745183225945
0.3058098853 -0.09699654579 0.0035210954476212588 0.000996491974272087
0.3111313581 -0.09699654579 0.003564195413100751 0.0010602155107327206
0.3164528012 -0.09699654579 0.003606906695074717 0.0011228685515731448
0.3217742741 -0.09699654579 0.0036468964935557533 0.0011835739156908108
0.3270957172 -0.09699654579 0.003662813577516656 0.0012453557374948142
0.3324171901 -0.09699654579 0.0036788617925102057 0.001307131323847886
0.3377386332 -0.09699654579 0.0036949224435941525 0.0013683040425602712
0.343060106 -0.09699654579 0.003711118700365889 0.0014287659431044555
0.3483815491 -0.09699654579 0.0037269736691952983 0.0014893779233208892
0.353703022 -0.09699654579 0.0037380433404105447 0.001551267033643112
0.3590244651 -0.09699654579 0.003739782055490517 0.0016143625510169801
0.364345938 -0.09699654579 0.0037407375412101735 0.0016757487520802125
0.369667381 -0.09699654579 0.0037417281865596854 0.00173718431524678
0.3749888539 -0.09699654579 0.0037436735809113254 0.0017984040083054043
0.380310297 -0.09699654579 0.003745485925688661 0.0018585563339882684
0.3856317699 -0.09699654579 0.0037258836322775616 0.0019189182321609948
0.390953213 -0.09699654579 0.0037009623431711234 0.001980637803162801
0.3962746859 -0.09699654579 0.003675669822149874 0.002043185643507285
0.4015961289 -0.09699654579 0.0036509882688985367 0.0021037899306038067
0.4069176018 -0.09699654579 0.003626631111525778 0.002162258259106396
0.4122390449 -0.09699654579 0.0035886535823881653 0.0022133453640418785
0.4175605178 -0.09699654579 0.0035334449089053123 0.002254847607498843
0.4228819609 -0.09699654579 0.0034806625383484407 0.002294242691855685
0.4282034338 -0.09699654579 0.003429256437377889 0.0023324621140345925
0.4335248768 -0.09699654579 0.0033775480978229895 0.0023710241751596565
0.4388463497 -0.09699654579 0.003318552346588899 0.002401543788684475
0.4441677928 -0.09699654579 0.003252172197900226 0.0024090832463444355
0.4494892657 -0.09699654579 0.0031868040510821607 0.002417062485856687
0.4548107088 -0.09699654579 0.003122276740287891 0.002425305151281091
0.4601321816 -0.09699654579 0.0030581768110023696 0.002433424960384113
0.4654536247 -0.09699654579 0.0029993790928547065 0.0024289994051112816
0.4707750976 -0.09699654579 0.0029406937937293044 0.0024075725817784954
0.4760965407 -0.09699654579 0.002880296563968345 0.002385739357471729
0.4814180136 -0.09699654579 0.0028214964168354973 0.0023642948207377693
0.4867394567 -0.09699654579 0.002765295142176525 0.002343549290321373
0.4920609295 -0.09699654579 0.00271706376752662 0.002305811623925678
0.4973823726 -0.09699654579 0.002670842071700532 0.002263717981346546
0.5027038455 -0.09699654579 0.0026261856351240415 0.0022224607322192643
0.5080252886 -0.09699654579 0.002580981735660152 0.002181082366240199
0.5133467317 -0.09699654579 0.002541934653718418 0.0021319657267821527
0.5186682343 -0.09699654579 0.0025102617270898716 0.002074340094368747
0.5239896774 -0.09699654579 0.0024812064828386884 0.0020191195810626166
0.5293111205 -0.09699654579 0.0024507436916636 0.001962656037273651
0.5346325636 -0.09699654579 0.002426990607198995 0.001900335920512483
0.5399540663 -0.09699654579 0.002413838595605301 0.0018337885720021677
0.5452755094 -0.09699654579 0.0024013950717947374 0.001768563374489507
0.5505969524 -0.09699654579 0.0023882906926006578 0.0017019393457652098
0.5559183955 -0.09699654579 0.002387289243805862 0.001631536673732811
0.5612398982 -0.09699654579 0.0023918444800571305 0.001563010742801275
0.5665613413 -0.09699654579 0.0023965568263057384 0.0014942510997501865
0.5718827844 -0.09699654579 0.0024059965062166646 0.0014231652102225164
0.5772042274 -0.09699654579 0.0024255592139408757 0.0013556817941791626
0.5825257301 -0.09699654579 0.002445139608881295 0.00128816830492232
0.5878471732 -0.09699654579 0.0024691327937921433 0.001219615219020034
0.5931686163 -0.09699654579 0.002500775521220079 0.0011551880441715652
0.5984900594 -0.09699654579 0.0025329281261393505 0.0010895065201199472
0.6038115621 -0.09699654579 0.0025709841584867442 0.0010279086995829095
0.6091330051 -0.09699654579 0.002612415419418458 0.0009672035536419331
0.6144544482 -0.09699654579 0.0026555283624979005 0.0009093890089224516
0.6197758913 -0.09699654579 0.00270529824723226 0.0008562198610799616
0.625097394 -0.09699654579 0.002755035619213886 0.0008043874034221056
0.6304188371 -0.09699654579 0.0028096482506604578 0.0007577208188110956
0.6357402802 -0.09699654579 0.0028663490971674657 0.0007124135146275343
0.6410617828 -0.09699654579 0.00292428375625715 0.000672679748455132
0.6463832259 -0.09699654579 0.002984091802935073 0.000637353355998238
0.651704669 -0.09699654579 0.0030447468340623826 0.0006057463638858295
0.6570261121 -0.09699654579 0.0031057683464160014 0.0005806330181914228
0.6623476148 -0.09699654579 0.003166640862730206 0.0005585388988368407
0.6676690578 -0.09699654579 0.0032288960549574797 0.0005409901779268222
0.6729905009 -0.09699654579 0.0032906780859259335 0.0005279842426722842
0.678311944 -0.09699654579 0.003352159687898541 0.0005194102518321558
0.6836334467 -0.09699654579 0.0034125421828062083 0.000514961592893707
0.6889548898 -0.09699654579 0.0034708463827056914 0.0005162271419911321
0.6942763329 -0.09699654579 0.003527120821369234 0.0005217106932781033
0.6995977759 -0.09699654579 0.0035823789041771925 0.0005323070034816565
0.7049192786 -0.09699654579 0.0036346868665387104 0.0005478308967934557
0.7102407217 -0.09699654579 0.003683820447485039 0.0005685858902756309
0.7155621648 -0.09699654579 0.003728580527538998 0.000596567247027461
0.7208836079 -0.09699654579 0.0037701700249747347 0.0006298047589959592
0.7262051105 -0.09699654579 0.0038061145736747967 0.0006687583821959348
0.7315265536 -0.09699654579 0.003836744638792173 0.0007131239848069049
0.7368479967 -0.09699654579 0.0038585221644367013 0.0007638529322077014
0.7421694398 -0.09699654579 0.0038715716274756993 0.0008221257692147127
0.7474909425 -0.09699654579 0.0038750895792262863 0.0008859342898915082
0.7528123856 -0.09699654579 0.0038652866867434662 0.0009552153023444507
0.7581338286 -0.09699654579 0.0038398377609227662 0.001030194115977472
-0.3008363545 -0.09367749095 -0.0018397703294637609 0.0033803854022026025
-0.2955148816 -0.09367749095 -0.0018824493828583754 0.0033392676508764135
-0.2901934385 -0.09367749095 -0.0019266310579673974 0.0032856206281574943
-0.2848719656 -0.09367749095 -0.001960165468542404 0.0032244352222877007
-0.2795505226 -0.09367749095 -0.001993401493819568 0.0031589937608759657
-0.2742290497 -0.09367749095 -0.0020285939913505394 0.0030796354469081145
-0.2689076066 -0.09367749095 -0.0020595212481719577 0.002996480964100199
-0.2635861337 -0.09367749095 -0.002090782952521881 0.002900891639248611
-0.2582646906 -0.09367749095 -0.0021029989345808216 0.0028239380463861313
-0.2529432178 -0.09367749095 -0.002118800129960155 0.0027484927028368273
-0.2476217598 -0.09367749095 -0.0021221225315215943 0.0026725698386268625
-0.2423003018 -0.09367749095 -0.0021172336573879492 0.0025942082690908067
-0.2369788438 -0.09367749095 -0.0021072005725233096 0.0025087148705484293
-0.2316573858 -0.09367749095 -0.002106136305723317 0.0024161271673940284
-0.2263359278 -0.09367749095 -0.0020988616186689442 0.0023158117944613735
-0.2210144699 -0.09367749095 -0.0020872940101503198 0.0022178603079131593
-0.2156930119 -0.09367749095 -0.0020781824799218805 0.0021158583726993596
-0.2103715539 -0.09367749095 -0.0020681574905236032 0.0020111898669959265