VARIABLES = X,Y,phix,phiy
ZONE I=200,J=200,F=POINT 
-0.3008363545 -0.1003156006 -0.0001381274433865015 0.0013782945840613403
-0.2955148816 -0.1003156006 -0.00015719366652465066 0.0013859984473333497
-0.2901934385 -0.1003156006 -0.00017479702026708356 0.0013865768210850364
-0.2848719656 -0.1003156006 -0.00019322783362377764 0.0013879466155309762
-0.2795505226 -0.1003156006 -0.0002150619149047992 0.0013863435320006093
-0.2742290497 -0.1003156006 -0.00023851967283248927 0.0013777454724938866
-0.2689076066 -0.1003156006 -0.00026152364813653326 0.0013685815707491602
-0.2635861337 -0.1003156006 -0.0002918843490145892 0.0013477607895651907
-0.2582646906 -0.1003156006 -0.00033401698852218253 0.0013178368219807582
-0.2529432178 -0.1003156006 -0.0003790898214837112 0.0012820548751859187
-0.2476217598 -0.1003156006 -0.0004278581277833365 0.001239747247285259
-0.2423003018 -0.1003156006 -0.00045058670390366013 0.0011909995450506937
-0.2369788438 -0.1003156006 -0.0004624233961954618 0.0011392757078139604
-0.2316573858 -0.1003156006 -0.0004737156713338454 0.0010836851843620573
-0.2263359278 -0.1003156006 -0.0004770435784250595 0.0010262755779836099
-0.2210144699 -0.1003156006 -0.0004688825430591373 0.0009738761070272396
-0.2156930119 -0.1003156006 -0.00045889602727670935 0.0009196443645051366
-0.2103715539 -0.1003156006 -0.00044568984501118237 0.0008620220802820896
-0.2050500959 -0.1003156006 -0.00042704321230687965 0.0008204329696666232
-0.1997286379 -0.1003156006 -0.0004097349035963066 0.0007766668639063898
-0.19440718 -0.1003156006 -0.0003897587332689809 0.0007333327908246085
-0.189085722 -0.1003156006 -0.00036157995212385323 0.000697961334643943
-0.183764264 -0.1003156006 -0.00032876152754850754 0.0006617663228859502
-0.178442806 -0.1003156006 -0.0002966825714794174 0.000624532078792799
-0.173121348 -0.1003156006 -0.0002685630316015876 0.0005961528026455612
-0.16779989 -0.1003156006 -0.00024202080441993669 0.0005681919379210994
-0.1624784321 -0.1003156006 -0.00021534103822053142 0.0005446427267305239
-0.1571569741 -0.1003156006 -0.0001924778107282812 0.0005251780961175928
-0.1518355161 -0.1003156006 -0.00017186249082943444 0.0005076330231755694
-0.1465140581 -0.1003156006 -0.00015101075089309473 0.0004900259456929304
-0.1411926001 -0.1003156006 -0.00013074470881818635 0.00047120932409485956
-0.1358711421 -0.1003156006 -0.00011033706662455738 0.0004481375027312374
-0.1305496842 -0.1003156006 -8.993504296445065e-05 0.0004250592144750029
-0.1252282262 -0.1003156006 -6.844937967435152e-05 0.0004012613877529468
-0.1199067682 -0.1003156006 -4.3537493548896996e-05 0.0003801033830451382
-0.1145853102 -0.1003156006 -1.781072283205154e-05 0.00035926530065082617
-0.1092638522 -0.1003156006 8.451508044735964e-06 0.00033819156307437966
-0.1039423943 -0.1003156006 3.4649687836188614e-05 0.00031759717303959787
-0.09862093627 -0.1003156006 5.984669356939935e-05 0.00030270414587188336
-0.09329947084 -0.1003156006 8.55538111925178e-05 0.000288391657341125
-0.08797801286 -0.1003156006 0.00011106449349764492 0.00027407311732982484
-0.08265655488 -0.1003156006 0.00013638575137984627 0.00026025776262206783
-0.0773350969 -0.1003156006 0.00015768863917631795 0.00024829013757697804
-0.07201363891 -0.1003156006 0.00017914466459270176 0.00023632071087484376
-0.06669218093 -0.1003156006 0.0002005050203389012 0.00022435303845336538
-0.06137072667 -0.1003156006 0.0002225121006875756 0.00021231779923961146
-0.05604926869 -0.1003156006 0.0002464785216010562 0.00020273602205496145
-0.05072781071 -0.1003156006 0.0002706995167013825 0.00019345997593055313
-0.045406349 -0.1003156006 0.00029452414622268354 0.0001842681894900361
-0.04008489102 -0.1003156006 0.0003193294921741341 0.00017493825803249232
-0.03476343304 -0.1003156006 0.00034348465737391194 0.00016770836522941038
-0.02944197692 -0.1003156006 0.00036616917432024407 0.00016474453994394145
-0.02412051894 -0.1003156006 0.0003892072428476591 0.00016197747269716312
-0.01879905909 -0.1003156006 0.00041264286116256195 0.00015948976353726737
-0.01347760204 -0.1003156006 0.0004356811754016348 0.0001567055424384162
-0.00815614406 -0.1003156006 0.000453284150764151 0.000153346798698559
-0.00283468538 -0.1003156006 0.0004667417128995432 0.00014931700575254126
0.002486772602 -0.1003156006 0.00048014922646051297 0.00014579465755207606
0.007808230817 -0.1003156006 0.0004935931408450346 0.00014226561907667307
0.0131296888 -0.1003156006 0.0005071074690322171 0.00013833015159678803
0.01845114678 -0.1003156006 0.0005194639885852887 0.00013054490220769176
0.02377260476 -0.1003156006 0.0005310733232249814 0.00011953520794078497
0.02909406275 -0.1003156006 0.0005428437254195583 0.0001082739584176615
0.03441552073 -0.1003156006 0.0005545133903262007 9.701513442232544e-05
0.03973697871 -0.1003156006 0.0005662041551406882 8.59792028043754e-05
0.04505843669 -0.1003156006 0.0005813591212918852 7.446775923299513e-05
0.05037989467 -0.1003156006 0.0006019511738111456 6.234283690260018e-05
0.05570135266 -0.1003156006 0.0006229987266719587 4.990246003447684e-05
0.06102281436 -0.1003156006 0.0006442455471836954 3.741725886910897e-05
0.06634426862 -0.1003156006 0.0006649887998091047 2.5226987978699837e-05
0.0716657266 -0.1003156006 0.0006854165525583491 1.3183968651712539e-05
0.07698718458 -0.1003156006 0.000703088791338053 1.0587611731571528e-05
0.08230864257 -0.1003156006 0.0007205730519264746 8.733137548522218e-06
0.08763010055 -0.1003156006 0.0007384453767564191 7.141757921984785e-06
0.09295155853 -0.1003156006 0.0007559064542014137 5.290642834917435e-06
0.09827301651 -0.1003156006 0.0007732147387131964 3.2722599588398186e-06
0.1035944745 -0.1003156006 0.0007886040541726264 5.48279178460957e-07
0.1089159325 -0.1003156006 0.0007990492732717438 -3.674478337207909e-06
0.1142373979 -0.1003156006 0.000809605697938475 -7.892122907526941e-06
0.1195588559 -0.1003156006 0.0008203317060602271 -1.2466429187979527e-05
0.1248803139 -0.1003156006 0.0008310554526356738 -1.6919315971921376e-05
0.1302017719 -0.1003156006 0.000841613281200644 -2.127749104336537e-05
0.1355232298 -0.1003156006 0.0008511808662696259 -3.0286654065596058e-05
0.1408446878 -0.1003156006 0.0008603478544744673 -4.2878052439101555e-05
0.1461661458 -0.1003156006 0.000869805148510385 -5.5407256777647986e-05
0.1514876038 -0.1003156006 0.000879312105355744 -6.793419415215227e-05
0.1568090618 -0.1003156006 0.0008888062592802997 -8.046435867352748e-05
0.1621305197 -0.1003156006 0.0008983155754630199 -9.30033861386901e-05
0.1674519777 -0.1003156006 0.0009118459354409365 -0.00010519011687959425
0.1727734357 -0.1003156006 0.0009267606731445779 -0.00011739909687721136
0.1780948937 -0.1003156006 0.0009415863393509566 -0.0001296025935785252
0.1834163517 -0.1003156006 0.0009565171160671318 -0.00014180975216810602
0.1887378097 -0.1003156006 0.0009713826883818938 -0.00015390313666267138
0.1940592676 -0.1003156006 0.0009859515596420793 -0.000165921064165013
0.1993807256 -0.1003156006 0.001001203313800465 -0.0001777477521415693
0.2047021836 -0.1003156006 0.0010166855083574913 -0.0001894612419431705
0.2100236416 -0.1003156006 0.001032054188914452 -0.00020123003586202117
0.2153450996 -0.1003156006 0.0010471742002215033 -0.0002132864925449157
0.2206665576 -0.1003156006 0.0010624263611858124 -0.00022518353882151532
0.2259880155 -0.1003156006 0.0010776016169443772 -0.00023707321696426377
0.2313094735 -0.1003156006 0.001089928402532257 -0.0002534512828717885
0.2366309315 -0.1003156006 0.0011024897638161214 -0.00027107158386414763
0.2419523895 -0.1003156006 0.0011154499438562316 -0.0002885437686577545
0.2472738475 -0.1003156006 0.0011284297425933193 -0.0003059371510032138
0.2525953054 -0.1003156006 0.0011421663570099847 -0.0003232373171505979
0.2579167783 -0.1003156006 0.0011567628500413864 -0.0003404266952862501
0.2632382214 -0.1003156006 0.001184363428767983 -0.0003687143125040976
0.2685596943 -0.1003156006 0.0012153039894873708 -0.0004003872184484232
0.2738811374 -0.1003156006 0.0012461212063857774 -0.0004332829141279733
0.2792026103 -0.1003156006 0.001277109380074962 -0.00046516800066727257
0.2845240533 -0.1003156006 0.0013081526811060435 -0.00049452653179537
0.2898455262 -0.1003156006 0.0013392950380261115 -0.0005238805234070207
0.2951669693 -0.1003156006 0.0014013375226251807 -0.0005373375915915118
0.3004884422 -0.1003156006 0.0014680642589984365 -0.0005479271250350916
0.3058098853 -0.1003156006 0.0015308664673731316 -0.0005566166660181243
0.3111313581 -0.1003156006 0.0015935380605700236 -0.000565295259051624
0.3164528012 -0.1003156006 0.0016561183278611248 -0.00057397379486899
0.3217742741 -0.1003156006 0.0017189138001879492 -0.0005817733632763434
0.3270957172 -0.1003156006 0.0017820714884707837 -0.0005458746024711406
0.3324171901 -0.1003156006 0.0018454197107870519 -0.0005100349775303058
0.3377386332 -0.1003156006 0.0019087522907920381 -0.0004741935051388654
0.343060106 -0.1003156006 0.001972118832474547 -0.0004383430610281221
0.3483815491 -0.1003156006 0.0020310262667468824 -0.0004045604626737524
0.353703022 -0.1003156006 0.002080171093761245 -0.00036339327268329
0.3590244651 -0.1003156006 0.00210741345655211 -0.00030478451372322574
0.364345938 -0.1003156006 0.0021345694481347695 -0.00024618352268062504
0.369667381 -0.1003156006 0.0021599931548399306 -0.00019133511502147785
0.3749888539 -0.1003156006 0.0021859086381589574 -0.00013557289128711885
0.380310297 -0.1003156006 0.002211915489345781 -7.933247850779885e-05
0.3856317699 -0.1003156006 0.002210121272701365 -1.7654922595015847e-05
0.390953213 -0.1003156006 0.0021997407859918124 4.1059863833662954e-05
0.3962746859 -0.1003156006 0.0021891869353298835 9.93471225797112e-05
0.4015961289 -0.1003156006 0.002179338082961939 0.000157716966378325
0.4069176018 -0.1003156006 0.0021701435663238683 0.00021605370777974287
0.4122390449 -0.1003156006 0.0021482826713297085 0.0002650323663773403
0.4175605178 -0.1003156006 0.0021053745868129937 0.00030731574535362464
0.4228819609 -0.1003156006 0.002061330630861751 0.00035107524278035594
0.4282034338 -0.1003156006 0.0020175468313396636 0.0003946316520091095
0.4335248768 -0.1003156006 0.001976974183684489 0.00043405562683672405
0.4388463497 -0.1003156006 0.0019304525633695461 0.00046588960443538546
0.4441677928 -0.1003156006 0.0018672363982257106 0.0004767995688160818
0.4494892657 -0.1003156006 0.0018050548885778159 0.0004874557331436941
0.4548107088 -0.1003156006 0.0017465404111805414 0.0004967256684655973
0.4601321816 -0.1003156006 0.0016855150935810252 0.0005067645538235649
0.4654536247 -0.1003156006 0.0016223210404518753 0.000503715340565988
0.4707750976 -0.1003156006 0.0015576069419028858 0.00048014835758093417
0.4760965407 -0.1003156006 0.001496429715658067 0.0004569663330275284
0.4814180136 -0.1003156006 0.0014354011461864954 0.00043378972258245277
0.4867394567 -0.1003156006 0.001374013261324933 0.00041054573076451174
0.4920609295 -0.1003156006 0.0013196584207402044 0.00036577680512523477
0.4973823726 -0.1003156006 0.0012690989110254094 0.0003155512909757287
0.5027038455 -0.1003156006 0.0012185678639460352 0.0002654338492441275
0.5080252886 -0.1003156006 0.0011679909507527875 0.0002153360790545754
0.5133467317 -0.1003156006 0.0011271569262768506 0.00015927090476026997
0.5186682343 -0.1003156006 0.0010924695485834076 9.143774133642992e-05
0.5239896774 -0.1003156006 0.0010575688409546692 2.3601037904541373e-05
0.5293111205 -0.1003156006 0.0010232595599381112 -4.3583167357138414e-05
0.5346325636 -0.1003156006 0.0009965402626069782 -0.0001135437465922378
0.5399540663 -0.1003156006 0.0009762627726479563 -0.00019161849912184935
0.5452755094 -0.1003156006 0.0009551566133221801 -0.0002705857065053537
0.5505969524 -0.1003156006 0.0009355706288197737 -0.0003475805346720323
0.5559183955 -0.1003156006 0.0009257662014957729 -0.0004296029822597782
0.5612398982 -0.1003156006 0.0009179372264907439 -0.0005166030618897915
0.5665613413 -0.1003156006 0.000910484845078821 -0.0006031512355879724
0.5718827844 -0.1003156006 0.0009087119470165346 -0.0006892814420390847
0.5772042274 -0.1003156006 0.0009139164614594915 -0.0007816756105876182
0.5825257301 -0.1003156006 0.0009187865748599347 -0.000874375768234906
0.5878471732 -0.1003156006 0.0009291965617184948 -0.0009668994357428471
0.5931686163 -0.1003156006 0.0009447614695133839 -0.0010635247800360806
0.5984900594 -0.1003156006 0.000959705320011622 -0.0011601116440822842
0.6038115621 -0.1003156006 0.0009822479995973859 -0.0012596527872948018
0.6091330051 -0.1003156006 0.001006161577308974 -0.0013589149474873326
0.6144544482 -0.1003156006 0.0010343141552922833 -0.00146125347938049
0.6197758913 -0.1003156006 0.0010669979077828282 -0.0015633527250852306
0.625097394 -0.1003156006 0.001102029486517033 -0.0016667013361023751
0.6304188371 -0.1003156006 0.0011424618905546942 -0.0017722244949890918
0.6357402802 -0.1003156006 0.0011859831400782047 -0.0018766829854539916
0.6410617828 -0.1003156006 0.0012329582506403426 -0.0019849955465833626
0.6463832259 -0.1003156006 0.001283436843625165 -0.002093270023580765
0.651704669 -0.1003156006 0.0013354993574181426 -0.002203492296305324
0.6570261121 -0.1003156006 0.001394041785778402 -0.002314852630578142
0.6623476148 -0.1003156006 0.00145559756416774 -0.0024299689457241056
0.6676690578 -0.1003156006 0.0015209816206166842 -0.0025467668871085045
0.6729905009 -0.1003156006 0.0015931053338295398 -0.0026678751416545424
0.678311944 -0.1003156006 0.0016707006577211837 -0.0027901998521912648
0.6836334467 -0.1003156006 0.0017531979040889198 -0.002916368812639828
0.6889548898 -0.1003156006 0.0018419786268732321 -0.0030489012051282236
0.6942763329 -0.1003156006 0.0019414471373084949 -0.003183510263898701
0.6995977759 -0.1003156006 0.0020480078662191473 -0.0033214793061762124
0.7049192786 -0.1003156006 0.0021620407845492125 -0.00346222936198444
0.7102407217 -0.1003156006 0.002286620504464737 -0.0036086695680789724
0.7155621648 -0.1003156006 0.002425100375679456 -0.0037574550185560276
0.7208836079 -0.1003156006 0.002576276291981624 -0.003907063245535358
0.7262051105 -0.1003156006 0.002739641022716535 -0.004059658649811964
0.7315265536 -0.1003156006 0.002920200836196842 -0.004213879305562784
0.7368479967 -0.1003156006 0.0031218256228717866 -0.004369223945145006
0.7421694398 -0.1003156006 0.003340854213871254 -0.0045239898722875815
0.7474909425 -0.1003156006 0.0035704286053460156 -0.004668888437930301
0.7528123856 -0.1003156006 0.0038314108016094836 -0.004814173003407842
0.7581338286 -0.1003156006 0.004111875495418479 -0.004955456744441402
-0.3008363545 -0.09699654579 -0.00012891153788501263 0.0013862641184191006
-0.2955148816 -0.09699654579 -0.000150494163353935 0.0013980918446494456
-0.2901934385 -0.09699654579 -0.00017011677099810002 0.0014047781610441255
-0.2848719656 -0.09699654579 -0.0001896726134511478 0.0014050562130524663
-0.2795505226 -0.09699654579 -0.00021199534469769842 0.0014046273646931185
-0.2742290497 -0.09699654579 -0.00023573968319597367 0.0014001462845876509
-0.2689076066 -0.09699654579 -0.0002585637799618619 0.0013879610174767898
-0.2635861337 -0.09699654579 -0.00028488647787653314 0.001369623227949144
-0.2582646906 -0.09699654579 -0.000326085621916489 0.0013435521707709749
-0.2529432178 -0.09699654579 -0.0003749269381844293 0.0013039631613211583
-0.2476217598 -0.09699654579 -0.0004258621413438478 0.001255196318713951
-0.2423003018 -0.09699654579 -0.0004648607584285554 0.0012013323176926901
-0.2369788438 -0.09699654579 -0.0004799467067138605 0.0011477554055219696
-0.2316573858 -0.09699654579 -0.00048796506493370076 0.0010902068373476758
-0.2263359278 -0.09699654579 -0.00049076228689938 0.001029828576956049
-0.2210144699 -0.09699654579 -0.00048121479928952215 0.0009753503955651575
-0.2156930119 -0.09699654579 -0.00046818016327211285 0.000918074271881928
-0.2103715539 -0.09699654579 -0.00045647236056662325 0.0008552184483804562
-0.2050500959 -0.09699654579 -0.000437991360277023 0.0008065024772137705
-0.1997286379 -0.09699654579 -0.00041791627057312977 0.0007631997862824277
-0.19440718 -0.09699654579 -0.00039919012449203127 0.0007182083078743176
-0.189085722 -0.09699654579 -0.00036867873778269957 0.0006767429467890575
-0.183764264 -0.09699654579 -0.00033676751036971987 0.0006387932035342296
-0.178442806 -0.09699654579 -0.000299776144821264 0.00060190537541942
-0.173121348 -0.09699654579 -0.0002699943242744665 0.0005737876267329368
-0.16779989 -0.09699654579 -0.00024364863905329036 0.00055241284619402
-0.1624784321 -0.09699654579 -0.0002211384271838866 0.0005324162024513635
-0.1571569741 -0.09699654579 -0.00020121390680350417 0.0005145835599125974
-0.1518355161 -0.09699654579 -0.00018284542233148844 0.0004968088446314974
-0.1465140581 -0.09699654579 -0.0001632395514353858 0.0004790053132592445
-0.1411926001 -0.09699654579 -0.000142805280114439 0.00045977538927288985
-0.1358711421 -0.09699654579 -0.00012117569272838765 0.0004358288064129981
-0.1305496842 -0.09699654579 -9.877501817865781e-05 0.00041136316951788317
-0.1252282262 -0.09699654579 -7.712630835154478e-05 0.00038691113410644013
-0.1199067682 -0.09699654579 -5.230469551717622e-05 0.0003647757238667744
-0.1145853102 -0.09699654579 -2.6728124051225603e-05 0.00034346763491312964
-0.1092638522 -0.09699654579 -7.710229930680939e-07 0.0003221137646311558
-0.1039423943 -0.09699654579 2.6231503136489465e-05 0.00030094040754647647
-0.09862093627 -0.09699654579 5.144609934043922e-05 0.00028681508425375046
-0.09329947084 -0.09699654579 7.691013914819089e-05 0.00027296005154188593
-0.08797801286 -0.09699654579 0.00010271296713053924 0.0002593762672041739
-0.08265655488 -0.09699654579 0.00012798805135532323 0.00024586145288363706
-0.0773350969 -0.09699654579 0.0001502613668695923 0.00023382601772163733
-0.07201363891 -0.09699654579 0.00017282567632135158 0.00022169395230180961
-0.06669218093 -0.09699654579 0.00019574776590644365 0.00020956994537591356
-0.06137072667 -0.09699654579 0.00021902673605793329 0.00019731798001121535
-0.05604926869 -0.09699654579 0.0002448073833354148 0.0001874163768110846
-0.05072781071 -0.09699654579 0.00027080630265902643 0.00017789375866793375
-0.045406349 -0.09699654579 0.0002967529381707828 0.0001683712990409815
-0.04008489102 -0.09699654579 0.0003233930104172135 0.00015881588658515973
-0.03476343304 -0.09699654579 0.00034970705338785386 0.0001517773161916452
-0.02944197692 -0.09699654579 0.00037432038955058394 0.00015010630388871877
-0.02412051894 -0.09699654579 0.0003986055458588367 0.00014826177913614702
-0.01879905909 -0.09699654579 0.0004232180875776171 0.00014657497546798615
-0.01347760204 -0.09699654579 0.00044808667178899324 0.00014516991191747733
-0.00815614406 -0.09699654579 0.00046637428728204584 0.00014290791770531328
-0.00283468538 -0.09699654579 0.0004796985483250046 0.0001397774991216724
0.002486772602 -0.09699654579 0.0004929151725754387 0.00013683459865886314
0.007808230817 -0.09699654579 0.0005061264116694129 0.00013396263215344483
0.0131296888 -0.09699654579 0.0005193557645744824 0.0001309245410045045
0.01845114678 -0.09699654579 0.000531491581731223 0.00012309617201891897
0.02377260476 -0.09699654579 0.0005428607225206857 0.00011151034191040103
0.02909406275 -0.09699654579 0.0005541276504666536 9.972403088429325e-05
0.03441552073 -0.09699654579 0.0005652935508884916 8.789239152662346e-05
0.03973697871 -0.09699654579 0.0005766353521543219 7.628152832853642e-05
0.04505843669 -0.09699654579 0.0005922617817349922 6.403283239204381e-05
0.05037989467 -0.09699654579 0.0006142118084981222 5.109118660905517e-05
0.05570135266 -0.09699654579 0.0006363344360425476 3.8072236400176226e-05
0.06102281436 -0.09699654579 0.0006588195189925207 2.487030656804527e-05
0.06634426862 -0.09699654579 0.0006807026573642151 1.2014161060695912e-05
0.0716657266 -0.09699654579 0.0007026021023569973 -8.378866271300981e-07
0.07698718458 -0.09699654579 0.0007211708329306895 -2.260028274766416e-06
0.08230864257 -0.09699654579 0.0007395674491983626 -3.017231955369564e-06
0.08763010055 -0.09699654579 0.000757925515451961 -3.952498557977133e-06
0.09295155853 -0.09699654579 0.0007761969141671493 -5.0119640825822746e-06
0.09827301651 -0.09699654579 0.000794530832383365 -5.981563845600011e-06
0.1035944745 -0.09699654579 0.0008101452655273263 -7.869092302992288e-06
0.1089159325 -0.09699654579 0.0008200195413466812 -1.153849041796597e-05
0.1142373979 -0.09699654579 0.0008303695467789085 -1.5431909401162043e-05
0.1195588559 -0.09699654579 0.0008408114966823777 -1.9492205400961782e-05
0.1248803139 -0.09699654579 0.0008513894957910631 -2.355261933707535e-05
0.1302017719 -0.09699654579 0.0008616547620298579 -2.7469643626650993e-05
0.1355232298 -0.09699654579 0.0008705002216705277 -3.6774627614778606e-05
0.1408446878 -0.09699654579 0.0008795002672769815 -4.9624616144764026e-05
0.1461661458 -0.09699654579 0.0008884619858575247 -6.2439787798642e-05
0.1514876038 -0.09699654579 0.0008969532751135781 -7.527464437608042e-05
0.1568090618 -0.09699654579 0.0009056692811053066 -8.809857448878816e-05
0.1621305197 -0.09699654579 0.000914586440290348 -0.00010073551877086257
0.1674519777 -0.09699654579 0.0009276735389722015 -0.00011323438081634061
0.1727734357 -0.09699654579 0.0009423317767675387 -0.00012561662772606213
0.1780948937 -0.09699654579 0.000956912592682788 -0.00013803168708293275
0.1834163517 -0.09699654579 0.0009716250524679983 -0.00015041711975868793
0.1887378097 -0.09699654579 0.0009861472914354675 -0.0001627255831537284
0.1940592676 -0.09699654579 0.0010006533820635444 -0.0001750419774692221
0.1993807256 -0.09699654579 0.001015657339084471 -0.0001866668100909551
0.2047021836 -0.09699654579 0.001030692123573096 -0.0001980292539577986
0.2100236416 -0.09699654579 0.0010457557263871809 -0.00020977791825258881
0.2153450996 -0.09699654579 0.0010607819863948508 -0.0002214884889004077
0.2206665576 -0.09699654579 0.0010758570371213491 -0.0002331958791723165
0.2259880155 -0.09699654579 0.00109106346200589 -0.00024491052939976956
0.2313094735 -0.09699654579 0.0011023135599704254 -0.00026173917728945084
0.2366309315 -0.09699654579 0.001112647778457854 -0.00027966947755252234
0.2419523895 -0.09699654579 0.0011228917806864868 -0.00029760368148221963
0.2472738475 -0.09699654579 0.0011332164667740923 -0.0003155376218221049
0.2525953054 -0.09699654579 0.0011446368989332276 -0.00033335113745231034
0.2579167783 -0.09699654579 0.0011568857163560347 -0.0003509525923857131
0.2632382214 -0.09699654579 0.0011837412049355174 -0.00038434511100853507
0.2685596943 -0.09699654579 0.001213431238687214 -0.0004212056985674485
0.2738811374 -0.09699654579 0.0012435358060034075 -0.0004562537767541537
0.2792026103 -0.09699654579 0.0012735720121308804 -0.0004891448776300902
0.2845240533 -0.09699654579 0.0013039478175263664 -0.0005224391025917325
0.2898455262 -0.09699654579 0.0013339992157716026 -0.0005567817063295863
0.2951669693 -0.09699654579 0.0014006681739878665 -0.0005717227173666501
0.3004884422 -0.09699654579 0.0014691172844987837 -0.0005833282920372393
0.3058098853 -0.09699654579 0.0015382185548071612 -0.0005952160451320535
0.3111313581 -0.09699654579 0.0016072408563127013 -0.0006071013573086127
0.3164528012 -0.09699654579 0.0016748404796393262 -0.0006180595912971395
0.3217742741 -0.09699654579 0.00173947782035674 -0.0006250720555652553
0.3270957172 -0.09699654579 0.0018071242368687334 -0.0005862993480441826
0.3324171901 -0.09699654579 0.0018748135497285887 -0.0005475302047030847
0.3377386332 -0.09699654579 0.0019404817684812298 -0.0005095402720790789
0.343060106 -0.09699654579 0.0020046349384169166 -0.0004724227940727914
0.3483815491 -0.09699654579 0.0020690691463526533 -0.0004351983104853866
0.353703022 -0.09699654579 0.0021215648534908113 -0.00038852908255806366
0.3590244651 -0.09699654579 0.0021496277168011725 -0.0003252242443923126
0.364345938 -0.09699654579 0.0021763345354630166 -0.0002646073484797611
0.369667381 -0.09699654579 0.002203430828465745 -0.0002040162650209749
0.3749888539 -0.09699654579 0.002231468441731232 -0.00014354070240602378
0.380310297 -0.09699654579 0.0022585782337072504 -8.508661401672516e-05
0.3856317699 -0.09699654579 0.0022555121913671416 -2.3110372020404456e-05
0.390953213 -0.09699654579 0.002244503876958475 4.110033037434899e-05
0.3962746859 -0.09699654579 0.002233299450955047 0.00010709476740880893
0.4015961289 -0.09699654579 0.0022223097059148006 0.00016984996450036962
0.4069176018 -0.09699654579 0.002211651139572495 0.00023055051428503233
0.4122390449 -0.09699654579 0.0021845530257261193 0.00028575349074591865
0.4175605178 -0.09699654579 0.0021356582210769783 0.00033360946782845323
0.4228819609 -0.09699654579 0.0020894605014798 0.00037802254689989597
0.4282034338 -0.09699654579 0.0020441867086782007 0.00042132099051353386
0.4335248768 -0.09699654579 0.001998712963023927 0.0004647894141328607
0.4388463497 -0.09699654579 0.0019441757001400057 0.0005007989813316351
0.4441677928 -0.09699654579 0.0018765762203249551 0.0005125248750782565
0.4494892657 -0.09699654579 0.001809770525165998 0.0005244720519540433
0.4548107088 -0.09699654579 0.0017435323305817457 0.0005365619632525574
0.4601321816 -0.09699654579 0.00167818216059039 0.0005483564830801156
0.4654536247 -0.09699654579 0.0016149235917924036 0.0005444924832358092
0.4707750976 -0.09699654579 0.0015473006055607423 0.0005205588544656411
0.4760965407 -0.09699654579 0.0014769883378896408 0.0004962380074380891
0.4814180136 -0.09699654579 0.001409358913088514 0.00047229184780184826
0.4867394567 -0.09699654579 0.0013447620702050716 0.00044867373457457203
0.4920609295 -0.09699654579 0.001288176657444457 0.00040173255406332996
0.4973823726 -0.09699654579 0.0012336407778975416 0.00034867836616404277
0.5027038455 -0.09699654579 0.0011810618383060712 0.00029684638826456955
0.5080252886 -0.09699654579 0.0011279432477299019 0.00024464245390529084
0.5133467317 -0.09699654579 0.0010821699028739872 0.00018382702850744826
0.5186682343 -0.09699654579 0.0010457274555918216 0.00011336571991697052
0.5239896774 -0.09699654579 0.0010109666283611152 4.535262397892082e-05
0.5293111205 -0.09699654579 0.0009753941160546199 -2.3955206051327253e-05
0.5346325636 -0.09699654579 0.000945030406330998 -9.912900304180382e-05
0.5399540663 -0.09699654579 0.0009236663632407931 -0.00017925257893892444
0.5452755094 -0.09699654579 0.0009028423027087068 -0.00025829064318635926
0.5505969524 -0.09699654579 0.0008814612710743031 -0.0003384637332755965
0.5559183955 -0.09699654579 0.0008692307440261687 -0.00042572604140289703
0.5612398982 -0.09699654579 0.000861299057320267 -0.0005127091325030508
0.5665613413 -0.09699654579 0.0008534380673297626 -0.0005999179027610321
0.5718827844 -0.09699654579 0.0008491824680909665 -0.0006920025483331526
0.5772042274 -0.09699654579 0.000853867846742227 -0.0007854726958294577
0.5825257301 -0.09699654579 0.0008585375851383654 -0.0008789707822858347
0.5878471732 -0.09699654579 0.0008664728580748141 -0.000976149572809534
0.5931686163 -0.09699654579 0.0008815818575656539 -0.0010739217955611296
0.5984900594 -0.09699654579 0.0008971263356041385 -0.0011731082894635178
0.6038115621 -0.09699654579 0.0009184192095060962 -0.001273791639521141
0.6091330051 -0.09699654579 0.0009441030660852171 -0.001376274816633321
0.6144544482 -0.09699654579 0.0009711575260587653 -0.0014786150945478177
0.6197758913 -0.09699654579 0.001004082619788165 -0.0015837763918051572
0.625097394 -0.09699654579 0.0010387522766929938 -0.0016886492955629298
0.6304188371 -0.09699654579 0.0010788594103827887 -0.0017964433996794467
0.6357402802 -0.09699654579 0.0011201169598693 -0.0019054666371942277
0.6410617828 -0.09699654579 0.0011658178171570675 -0.0020134308287678
0.6463832259 -0.09699654579 0.0012145559804628983 -0.0021249939085627376
0.651704669 -0.09699654579 0.0012663494740024893 -0.0022374160889874315
0.6570261121 -0.09699654579 0.0013238653821061423 -0.0023525471248845267
0.6623476148 -0.09699654579 0.0013847305495266948 -0.0024690254350477414
0.6676690578 -0.09699654579 0.0014496537620886344 -0.0025900265343866066
0.6729905009 -0.09699654579 0.0015193216572239054 -0.0027129967432557973
0.678311944 -0.09699654579 0.001593211049514634 -0.0028402248368954285
0.6836334467 -0.09699654579 0.0016722481965316584 -0.0029704952467175198
0.6889548898 -0.09699654579 0.0017597022030217734 -0.003104881759662045
0.6942763329 -0.09699654579 0.0018556341308266493 -0.0032440342855676358
0.6995977759 -0.09699654579 0.001958031943260964 -0.0033891897470170137
0.7049192786 -0.09699654579 0.002070348488612844 -0.003536539685403577
0.7102407217 -0.09699654579 0.0021941027374081726 -0.0036880782093973354
0.7155621648 -0.09699654579 0.002331857855737075 -0.0038446866421180193
0.7208836079 -0.09699654579 0.0024811820320893396 -0.004006593104869022
0.7262051105 -0.09699654579 0.00264583983589446 -0.004169935520765402
0.7315265536 -0.09699654579 0.00282225622862886 -0.004333030614666405
0.7368479967 -0.09699654579 0.003021502037448168 -0.0044994374062559805
0.7421694398 -0.09699654579 0.0032410711630491483 -0.0046633461997230684
0.7474909425 -0.09699654579 0.003478301948944032 -0.004827505290591488
0.7528123856 -0.09699654579 0.0037393382466195937 -0.004985218540309351
0.7581338286 -0.09699654579 0.004024603085378763 -0.0051359884231967695
-0.3008363545 -0.09367749095 -0.00011888694521203348 0.0013946326384609816
-0.2955148816 -0.09367749095 -0.00013908569833238817 0.0014088513055758392
-0.2901934385 -0.09367749095 -0.00016476449725638735 0.0014215525642771306
-0.2848719656 -0.09367749095 -0.00018622905571583868 0.0014262090668062401
-0.2795505226 -0.09367749095 -0.00020819839207178063 0.0014258605617440024
-0.2742290497 -0.09367749095 -0.00023418622250172884 0.0014223368867773735
-0.2689076066 -0.09367749095 -0.00025917155030763625 0.0014139391885443539
-0.2635861337 -0.09367749095 -0.00028202163516770427 0.0013974007567226863
-0.2582646906 -0.09367749095 -0.00032155325490363637 0.001366112259416038
-0.2529432178 -0.09367749095 -0.00037516118351073026 0.0013251668425592247
-0.2476217598 -0.09367749095 -0.00042935063044427204 0.0012764856263121705