VARIABLES = X,Y,phix,phiy
ZONE I=200,J=200,F=POINT 
-0.3008363545 -0.1003156006 -0.0007153214920627374 0.0003666058847510305
-0.2955148816 -0.1003156006 -0.0007136614076304243 0.00038695371409071944
-0.2901934385 -0.1003156006 -0.0007171388952517869 0.0003923141818669634
-0.2848719656 -0.1003156006 -0.0007220265030030309 0.0003962223789834891
-0.2795505226 -0.1003156006 -0.0007273285328717281 0.0003959886410831275
-0.2742290497 -0.1003156006 -0.0007346051367585984 0.0003915447046692792
-0.2689076066 -0.1003156006 -0.0007451777698570239 0.0003834510431634979
-0.2635861337 -0.1003156006 -0.0007619512699308799 0.00037981404054032134
-0.2582646906 -0.1003156006 -0.000779423631679929 0.00038044992077747856
-0.2529432178 -0.1003156006 -0.0007986745385480032 0.0003827829176126499
-0.2476217598 -0.1003156006 -0.0008204987834416589 0.0003868129706685014
-0.2423003018 -0.1003156006 -0.0008279182644321764 0.00040334952801980795
-0.2369788438 -0.1003156006 -0.000824169954722659 0.0004237899739048038
-0.2316573858 -0.1003156006 -0.0008200442018352751 0.0004442964970934598
-0.2263359278 -0.1003156006 -0.0008211587104845321 0.00046568592194255244
-0.2210144699 -0.1003156006 -0.0008368523796941327 0.00047909403106861703
-0.2156930119 -0.1003156006 -0.0008543293453682186 0.0004914073163413285
-0.2103715539 -0.1003156006 -0.0008793342505021411 0.0005013012330033309
-0.2050500959 -0.1003156006 -0.0008977495640177139 0.0005043347417191934
-0.1997286379 -0.1003156006 -0.0009132018546907833 0.000504892816964694
-0.19440718 -0.1003156006 -0.0009360390172085249 0.0005053167701733412
-0.189085722 -0.1003156006 -0.0009543363757558571 0.0005091942281808921
-0.183764264 -0.1003156006 -0.0009716643077143933 0.0005158770978310371
-0.178442806 -0.1003156006 -0.0009883084038028983 0.0005253426692494955
-0.173121348 -0.1003156006 -0.0010099153885944332 0.0005260246406623619
-0.16779989 -0.1003156006 -0.0010306223810112255 0.0005243193149070529
-0.1624784321 -0.1003156006 -0.0010510879262195215 0.0005196587647793425
-0.1571569741 -0.1003156006 -0.0010695536936869388 0.0005119713903503112
-0.1518355161 -0.1003156006 -0.001085659918865029 0.0005005696370050978
-0.1465140581 -0.1003156006 -0.0011015575373929012 0.0004888004127597318
-0.1411926001 -0.1003156006 -0.00111604653954306 0.0004751512552779251
-0.1358711421 -0.1003156006 -0.0011262637408217143 0.0004593527857286111
-0.1305496842 -0.1003156006 -0.0011364323493261723 0.00044355872980091196
-0.1252282262 -0.1003156006 -0.0011462945887548987 0.0004266303230346354
-0.1199067682 -0.1003156006 -0.0011526157064063191 0.00041218279542048635
-0.1145853102 -0.1003156006 -0.0011576061638931283 0.00039828867431540067
-0.1092638522 -0.1003156006 -0.0011625703564953672 0.0003841146133776837
-0.1039423943 -0.1003156006 -0.0011678847200885625 0.0003702421340085104
-0.09862093627 -0.1003156006 -0.0011745174182211705 0.0003604994153486779
-0.09329947084 -0.1003156006 -0.001181562348385935 0.00035106206677057797
-0.08797801286 -0.1003156006 -0.0011887320544053436 0.00034162506666408205
-0.08265655488 -0.1003156006 -0.0011962589134273584 0.00033201914749888406
-0.0773350969 -0.1003156006 -0.0012050023961596285 0.00031945467079860096
-0.07201363891 -0.1003156006 -0.0012137951198790094 0.0003069942785913677
-0.06669218093 -0.1003156006 -0.0012226046125452575 0.00029454055452857826
-0.06137072667 -0.1003156006 -0.001231584983471155 0.00028171780888358773
-0.05604926869 -0.1003156006 -0.001236994403514813 0.00026588073248819794
-0.05072781071 -0.1003156006 -0.0012411095661569245 0.0002494486787857184
-0.045406349 -0.1003156006 -0.0012452259167377235 0.00023318026931016072
-0.04008489102 -0.1003156006 -0.0012495617061611308 0.0002166623254785619
-0.03476343304 -0.1003156006 -0.001253054808129333 0.00020053155828822432
-0.02944197692 -0.1003156006 -0.001254632548110325 0.00018567047465378606
-0.02412051894 -0.1003156006 -0.0012561580387375766 0.00017078348888302177
-0.01879905909 -0.1003156006 -0.0012576867041795886 0.00015586688316257026
-0.01347760204 -0.1003156006 -0.0012591620195248217 0.00014099112070058677
-0.00815614406 -0.1003156006 -0.0012611416642209035 0.00012556555065369396
-0.00283468538 -0.1003156006 -0.001263252859593564 0.00010989987526135314
0.002486772602 -0.1003156006 -0.0012659253484343122 9.431086280676277e-05
0.007808230817 -0.1003156006 -0.0012683500929932827 7.870487987157462e-05
0.0131296888 -0.1003156006 -0.001270484705821174 6.305983183834389e-05
0.01845114678 -0.1003156006 -0.0012724161222026768 4.3061561295484436e-05
0.02377260476 -0.1003156006 -0.0012743255762424385 1.979739939122653e-05
0.02909406275 -0.1003156006 -0.0012765105201800033 -3.9785797516082165e-06
0.03441552073 -0.1003156006 -0.0012786581552055923 -2.7758176699345244e-05
0.03973697871 -0.1003156006 -0.001280570555728033 -5.108568248575775e-05
0.04505843669 -0.1003156006 -0.0012766733873854738 -7.480831084568846e-05
0.05037989467 -0.1003156006 -0.0012636951949796887 -9.8911680361229e-05
0.05570135266 -0.1003156006 -0.001250363004396313 -0.00012358640727322788
0.06102281436 -0.1003156006 -0.0012371244036622577 -0.00014834677883202203
0.06634426862 -0.1003156006 -0.0012240019729885972 -0.00017261207866939526
0.0716657266 -0.1003156006 -0.001211239537048026 -0.00019658909528482492
0.07698718458 -0.1003156006 -0.0011967165800741983 -0.0002101125174335495
0.08230864257 -0.1003156006 -0.0011820374335150218 -0.00022271727895470327
0.08763010055 -0.1003156006 -0.0011671593275418694 -0.00023507926919132468
0.09295155853 -0.1003156006 -0.0011525047200818422 -0.0002476590273520291
0.09827301651 -0.1003156006 -0.0011380946219570365 -0.00026040029262339935
0.1035944745 -0.1003156006 -0.0011248403695417923 -0.00027449365668025797
0.1089159325 -0.1003156006 -0.0011151631657449188 -0.00029107518500276307
0.1142373979 -0.1003156006 -0.0011055123697362472 -0.0003076534659392489
0.1195588559 -0.1003156006 -0.001095309425533262 -0.0003237752207946437
0.1248803139 -0.1003156006 -0.0010853778123877953 -0.0003400667648793297
0.1302017719 -0.1003156006 -0.0010754738659260006 -0.0003564525842087016
0.1355232298 -0.1003156006 -0.0010571894384863816 -0.0003739482072135442
0.1408446878 -0.1003156006 -0.0010330288279317174 -0.0003917732203366242
0.1461661458 -0.1003156006 -0.0010096591984919423 -0.00040874930154177286
0.1514876038 -0.1003156006 -0.0009860425522001976 -0.00042573221831654926
0.1568090618 -0.1003156006 -0.0009626999014584844 -0.00044270606707880704
0.1621305197 -0.1003156006 -0.0009394500685608614 -0.0004597302992223677
0.1674519777 -0.1003156006 -0.0009131505246999821 -0.0004609919781118483
0.1727734357 -0.1003156006 -0.000884843407652704 -0.0004554798295751378
0.1780948937 -0.1003156006 -0.000856538992019647 -0.0004499709027276656
0.1834163517 -0.1003156006 -0.000828168085502184 -0.0004444623824128377
0.1887378097 -0.1003156006 -0.0008008646583994764 -0.00043924855000292666
0.1940592676 -0.1003156006 -0.0007747227626350348 -0.00043472093611159794
0.1993807256 -0.1003156006 -0.0007670882384700313 -0.00042060125854883034
0.2047021836 -0.1003156006 -0.0007654421703993707 -0.0004032044820884288
0.2100236416 -0.1003156006 -0.000763759739935466 -0.00038586192334400915
0.2153450996 -0.1003156006 -0.0007622195575460987 -0.00037090732988101987
0.2206665576 -0.1003156006 -0.0007605512562415917 -0.00035508240704567825
0.2259880155 -0.1003156006 -0.0007587831952105764 -0.00033925392832950585
0.2313094735 -0.1003156006 -0.0007787041847451829 -0.0003372775595069985
0.2366309315 -0.1003156006 -0.0008028660015197149 -0.0003402435035502086
0.2419523895 -0.1003156006 -0.0008260617398194999 -0.0003435391105941913
0.2472738475 -0.1003156006 -0.0008493440825248892 -0.0003467987445805519
0.2525953054 -0.1003156006 -0.0008730620211202589 -0.0003499052193924427
0.2579167783 -0.1003156006 -0.0008952580043684206 -0.000353620495427467
0.2632382214 -0.1003156006 -0.0009141414610320413 -0.0003832769405307879
0.2685596943 -0.1003156006 -0.00093284988552665 -0.0004196807988956248
0.2738811374 -0.1003156006 -0.0009522776853961313 -0.0004568615628223926
0.2792026103 -0.1003156006 -0.0009711603791546547 -0.000493385181896269
0.2845240533 -0.1003156006 -0.000987735829579317 -0.0005285050786110057
0.2898455262 -0.1003156006 -0.001004152931440039 -0.0005636145447293914
0.2951669693 -0.1003156006 -0.0009955604156727236 -0.0006106501742299427
0.3004884422 -0.1003156006 -0.0009830202162940192 -0.0006590534717925651
0.3058098853 -0.1003156006 -0.0009702029591145045 -0.0007048834072833593
0.3111313581 -0.1003156006 -0.0009573488491183516 -0.0007507064270945233
0.3164528012 -0.1003156006 -0.0009445438634502596 -0.0007965360538894386
0.3217742741 -0.1003156006 -0.0009315351770712199 -0.000842221992661503
0.3270957172 -0.1003156006 -0.0008972934923304642 -0.0008772934776392723
0.3324171901 -0.1003156006 -0.0008628179478214829 -0.0009123313997043143
0.3377386332 -0.1003156006 -0.0008283759757886576 -0.0009473687850663808
0.343060106 -0.1003156006 -0.0007940652681374357 -0.0009823912942101352
0.3483815491 -0.1003156006 -0.0007606988230951145 -0.0010160503831125108
0.353703022 -0.1003156006 -0.0007252289596085417 -0.0010471706401546862
0.3590244651 -0.1003156006 -0.0006844797416816278 -0.0010725887631820548
0.364345938 -0.1003156006 -0.0006436942212488054 -0.0010979753906115535
0.369667381 -0.1003156006 -0.0006039588843635013 -0.0011224021689466364
0.3749888539 -0.1003156006 -0.0005638577894818879 -0.0011470506326677916
0.380310297 -0.1003156006 -0.0005235202665495304 -0.0011718503094692388
0.3856317699 -0.1003156006 -0.00047698073516041286 -0.0011901301086191325
0.390953213 -0.1003156006 -0.0004298703893626931 -0.0012054528579027238
0.3962746859 -0.1003156006 -0.000382622643588464 -0.0012206814378433366
0.4015961289 -0.1003156006 -0.00033540205850005354 -0.0012360329532433714
0.4069176018 -0.1003156006 -0.0002880045161325479 -0.0012513810527109016
0.4122390449 -0.1003156006 -0.00024086721851884302 -0.0012612948453115391
0.4175605178 -0.1003156006 -0.0001916818193145294 -0.0012638605466737832
0.4228819609 -0.1003156006 -0.00014190891630525465 -0.0012663155969973572
0.4282034338 -0.1003156006 -9.2170922261842e-05 -0.0012687874706733924
0.4335248768 -0.1003156006 -4.387403648965995e-05 -0.0012715429384298229
0.4388463497 -0.1003156006 3.3170409119640802e-06 -0.001272330608170594
0.4441677928 -0.1003156006 4.844206850411182e-05 -0.0012673118176958964
0.4494892657 -0.1003156006 9.349443345724758e-05 -0.0012623046801173397
0.4548107088 -0.1003156006 0.0001382301128387614 -0.0012576711948298358
0.4601321816 -0.1003156006 0.00018311552736407125 -0.0012529242659578708
0.4654536247 -0.1003156006 0.0002270112156619667 -0.0012476233541539176
0.4707750976 -0.1003156006 0.00026947942445391693 -0.0012411154304833433
0.4760965407 -0.1003156006 0.00031203220421682987 -0.0012345627360070973
0.4814180136 -0.1003156006 0.00035447526359341634 -0.0012280047925857746
0.4867394567 -0.1003156006 0.0003968897442221205 -0.001221283284350722
0.4920609295 -0.1003156006 0.00044140098596392226 -0.0012121707036648643
0.4973823726 -0.1003156006 0.00048636004611534215 -0.001202605404800678
0.5027038455 -0.1003156006 0.0005313920293139907 -0.001192995771585446
0.5080252886 -0.1003156006 0.0005764220317186195 -0.0011833643665040473
0.5133467317 -0.1003156006 0.0006209812788517936 -0.001170390132783755
0.5186682343 -0.1003156006 0.0006673500819201828 -0.0011534401099685659
0.5239896774 -0.1003156006 0.0007138651802158332 -0.0011366200004085474
0.5293111205 -0.1003156006 0.0007600207082863089 -0.0011197755705264789
0.5346325636 -0.1003156006 0.0008038207014299867 -0.0011013137606089064
0.5399540663 -0.1003156006 0.0008462567586694658 -0.0010794296969836293
0.5452755094 -0.1003156006 0.0008891863655359003 -0.0010574268222378195
0.5505969524 -0.1003156006 0.0009314219828429996 -0.0010357580651578077
0.5559183955 -0.1003156006 0.0009710220644267395 -0.0010130863615586104
0.5612398982 -0.1003156006 0.0010104739534093077 -0.0009889671720447275
0.5665613413 -0.1003156006 0.0010500169711049872 -0.0009649869684294434
0.5718827844 -0.1003156006 0.0010890708914073047 -0.0009413120475003237
0.5772042274 -0.1003156006 0.0011275955448477833 -0.0009167881504517298
0.5825257301 -0.1003156006 0.0011664558832258597 -0.0008922439547934001
0.5878471732 -0.1003156006 0.001204750126109541 -0.0008676514587028887
0.5931686163 -0.1003156006 0.001243329948053453 -0.0008423895526661418
0.5984900594 -0.1003156006 0.0012816498138544408 -0.0008174252930563073
0.6038115621 -0.1003156006 0.0013211336087695998 -0.0007920381006582785
0.6091330051 -0.1003156006 0.0013606779055801354 -0.0007666200871552462
0.6144544482 -0.1003156006 0.0014011954743145092 -0.0007405058141416593
0.6197758913 -0.1003156006 0.0014416102225413645 -0.0007141193688189211
0.625097394 -0.1003156006 0.0014828623074889546 -0.0006867713170902839
0.6304188371 -0.1003156006 0.0015257140348340899 -0.0006582709048171618
0.6357402802 -0.1003156006 0.0015680372920586722 -0.0006292299364972374
0.6410617828 -0.1003156006 0.0016112278257630738 -0.0005990621570422713
0.6463832259 -0.1003156006 0.0016552858276382366 -0.0005680142174085696
0.651704669 -0.1003156006 0.0016999504816748259 -0.0005363223556329377
0.6570261121 -0.1003156006 0.0017449815980172432 -0.0005032864996402846
0.6623476148 -0.1003156006 0.001791391414083275 -0.00046907687237375675
0.6676690578 -0.1003156006 0.001838132427152445 -0.000434302625225114
0.6729905009 -0.1003156006 0.0018856531455896113 -0.00039719901568382267
0.678311944 -0.1003156006 0.0019337839446052307 -0.000359285882139808
0.6836334467 -0.1003156006 0.001983113770282143 -0.00032039063577182114
0.6889548898 -0.1003156006 0.0020332360161678937 -0.00028094535046862954
0.6942763329 -0.1003156006 0.0020861316084289606 -0.00023670848783138276
0.6995977759 -0.1003156006 0.002139935776175599 -0.00019124806638108865
0.7049192786 -0.1003156006 0.0021948808160557414 -0.00014573358303654243
0.7102407217 -0.1003156006 0.002251306871957598 -9.707507415344468e-05
0.7155621648 -0.1003156006 0.002309735066357162 -4.5811055348558506e-05
0.7208836079 -0.1003156006 0.0023693964852861973 9.35072958969894e-06
0.7262051105 -0.1003156006 0.0024309424122498074 6.820959487114785e-05
0.7315265536 -0.1003156006 0.00249378030926601 0.0001288472725103085
0.7368479967 -0.1003156006 0.002560062042731927 0.00019701950988554098
0.7421694398 -0.1003156006 0.0026274232414544058 0.00026861718785337757
0.7474909425 -0.1003156006 0.0026944653886188555 0.00034371963876143733
0.7528123856 -0.1003156006 0.002763321344692407 0.0004262232761028632
0.7581338286 -0.1003156006 0.0028346745829671512 0.0005144048083172387
-0.3008363545 -0.09699654579 -0.0007159544155199395 0.00036629713413247717
-0.2955148816 -0.09699654579 -0.0007126263607984475 0.00038759256702090356
-0.2901934385 -0.09699654579 -0.0007137392703608225 0.00040227526063840626
-0.2848719656 -0.09699654579 -0.000718820961642995 0.0004047616595582174
-0.2795505226 -0.09699654579 -0.0007230329733182837 0.000403960532434593
-0.2742290497 -0.09699654579 -0.0007303584804494134 0.0004001719189050414
-0.2689076066 -0.09699654579 -0.0007430660260327399 0.0003887358934451099
-0.2635861337 -0.09699654579 -0.0007550020823852523 0.00038258656957786634
-0.2582646906 -0.09699654579 -0.0007695004727200462 0.0003839119530210209
-0.2529432178 -0.09699654579 -0.0007887621799071743 0.00038594485090628753
-0.2476217598 -0.09699654579 -0.0008138590434036882 0.000393124529805398
-0.2423003018 -0.09699654579 -0.0008324251976985301 0.00040721411842952593
-0.2369788438 -0.09699654579 -0.0008261969934322466 0.00042680966168010144
-0.2316573858 -0.09699654579 -0.0008238266117989711 0.00044822327352206284
-0.2263359278 -0.09699654579 -0.0008171388944416913 0.00047386598601943707
-0.2210144699 -0.09699654579 -0.0008302402920916456 0.0004896971764501618
-0.2156930119 -0.09699654579 -0.0008551000828188394 0.0004997022366135196
-0.2103715539 -0.09699654579 -0.0008776186455887997 0.000505786381591763
-0.2050500959 -0.09699654579 -0.0008972987884991146 0.0005078095566248227
-0.1997286379 -0.09699654579 -0.0009203745775747103 0.0005082008741267576
-0.19440718 -0.09699654579 -0.0009432109046496068 0.0005115191977737973
-0.189085722 -0.09699654579 -0.0009625433239908943 0.0005240384431190171
-0.183764264 -0.09699654579 -0.0009794464607755368 0.0005354086072603939
-0.178442806 -0.09699654579 -0.0010002356855078058 0.000547841891179923
-0.173121348 -0.09699654579 -0.0010213809054506633 0.0005491042387370173
-0.16779989 -0.09699654579 -0.0010415716007993385 0.0005432715731627518
-0.1624784321 -0.09699654579 -0.0010614008092376746 0.0005362978684902557
-0.1571569741 -0.09699654579 -0.0010795872292480818 0.0005249108419185909
-0.1518355161 -0.09699654579 -0.001094314997877121 0.0005124160437212604
-0.1465140581 -0.09699654579 -0.0011083833263686145 0.0004987601729398448
-0.1411926001 -0.09699654579 -0.0011216348632315611 0.00048473674846043153
-0.1358711421 -0.09699654579 -0.0011314577412678073 0.0004675842653382447
-0.1305496842 -0.09699654579 -0.0011412727166608505 0.00044998283818566413
-0.1252282262 -0.09699654579 -0.0011514437451921892 0.0004322203862376032
-0.1199067682 -0.09699654579 -0.0011581135297127358 0.00041674911482374345
-0.1145853102 -0.09699654579 -0.0011636785880109345 0.0004026421441952104
-0.1092638522 -0.09699654579 -0.0011691223621087652 0.00038846652171758836
-0.1039423943 -0.09699654579 -0.0011749725765046461 0.00037432905801368344
-0.09862093627 -0.09699654579 -0.0011825548247224732 0.00036512966366153784
-0.09329947084 -0.09699654579 -0.001190619436076928 0.0003560055788929703
-0.08797801286 -0.09699654579 -0.0011988857169438099 0.0003470000329201384
-0.08265655488 -0.09699654579 -0.001207310940364406 0.0003377952477947044
-0.0773350969 -0.09699654579 -0.0012163095777199238 0.000324899550120057
-0.07201363891 -0.09699654579 -0.0012257175620442188 0.000311744848335539
-0.06669218093 -0.09699654579 -0.0012352241607678034 0.0002985955187079918
-0.06137072667 -0.09699654579 -0.0012455070830801852 0.0002855178156842699
-0.05604926869 -0.09699654579 -0.0012516889883887668 0.0002691684260436309
-0.05072781071 -0.09699654579 -0.0012566562571133426 0.0002524843348214827
-0.045406349 -0.09699654579 -0.0012617468312144796 0.00023580323173768184
-0.04008489102 -0.09699654579 -0.0012666274328021856 0.00021881023298087865
-0.03476343304 -0.09699654579 -0.001270551951979797 0.00020217803764396007
-0.02944197692 -0.09699654579 -0.0012721345326651935 0.00018730401276525755
-0.02412051894 -0.09699654579 -0.0012737323065114537 0.000172397398544639
-0.01879905909 -0.09699654579 -0.00127531023603831 0.0001575323519100075
-0.01347760204 -0.09699654579 -0.001276802543878585 0.00014269083540612048
-0.00815614406 -0.09699654579 -0.0012791200507474777 0.00012739327716250495
-0.00283468538 -0.09699654579 -0.001282174054080984 0.00011193687281070614
0.002486772602 -0.09699654579 -0.0012853052438191322 9.655226229736649e-05
0.007808230817 -0.09699654579 -0.0012883768318478648 8.120424823283182e-05
0.0131296888 -0.09699654579 -0.001291384498095822 6.57880536456069e-05
0.01845114678 -0.09699654579 -0.0012944174993595005 4.506320835543554e-05
0.02377260476 -0.09699654579 -0.001297149972484777 2.060657939418724e-05
0.02909406275 -0.09699654579 -0.001300335818347289 -4.284001663575806e-06
0.03441552073 -0.09699654579 -0.001303551818154949 -2.924508459283444e-05
0.03973697871 -0.09699654579 -0.0013064478051177033 -5.373582610271989e-05
0.04505843669 -0.09699654579 -0.0013025898741310577 -7.885456233719875e-05
0.05037989467 -0.09699654579 -0.0012885013328941893 -0.00010442792112577567
0.05570135266 -0.09699654579 -0.0012743711029848841 -0.00013014440948088933
0.06102281436 -0.09699654579 -0.0012598071843202075 -0.0001562257801035361
0.06634426862 -0.09699654579 -0.0012458060393599805 -0.0001816633074055288
0.0716657266 -0.09699654579 -0.00123184778401198 -0.00020710071648934644
0.07698718458 -0.09699654579 -0.0012165967602275319 -0.00021973815564553615
0.08230864257 -0.09699654579 -0.0012011847569709418 -0.0002315443057700012
0.08763010055 -0.09699654579 -0.0011860114519635868 -0.00024350135511641015
0.09295155853 -0.09699654579 -0.0011706683369901282 -0.000255438369942378
0.09827301651 -0.09699654579 -0.0011555410892807184 -0.00026738280459472937
0.1035944745 -0.09699654579 -0.0011421833755316474 -0.0002813426458698538
0.1089159325 -0.09699654579 -0.0011333951522146848 -0.00029882263556557453
0.1142373979 -0.09699654579 -0.0011242378107348802 -0.0003159438877987698
0.1195588559 -0.09699654579 -0.001114802612722721 -0.0003327852080804346
0.1248803139 -0.09699654579 -0.0011054014989904473 -0.0003496291380894396
0.1302017719 -0.09699654579 -0.0010962587213383804 -0.00036671115630392063
0.1355232298 -0.09699654579 -0.001076764144651933 -0.0003857337528939492
0.1408446878 -0.09699654579 -0.0010514803819742346 -0.0004044936003983006
0.1461661458 -0.09699654579 -0.0010261810475227647 -0.00042333274606209335
0.1514876038 -0.09699654579 -0.001000916690656096 -0.0004422744816777754
0.1568090618 -0.09699654579 -0.0009758032275294918 -0.0004612232027881705
0.1621305197 -0.09699654579 -0.0009512351981056218 -0.00047942490509365703
0.1674519777 -0.09699654579 -0.0009218045605092782 -0.000479155115357263
0.1727734357 -0.09699654579 -0.0008904224650050939 -0.0004721004614348291
0.1780948937 -0.09699654579 -0.0008579122399278463 -0.00046452889876639
0.1834163517 -0.09699654579 -0.0008258436626067808 -0.00045711642748147386
0.1887378097 -0.09699654579 -0.0007958875449290405 -0.0004508199010653911
0.1940592676 -0.09699654579 -0.0007658060874233005 -0.00044452132456307235
0.1993807256 -0.09699654579 -0.0007576589660867779 -0.00042630130594779945
0.2047021836 -0.09699654579 -0.0007554208059726311 -0.00040470061918244395
0.2100236416 -0.09699654579 -0.0007534612878063957 -0.00038582443814147617
0.2153450996 -0.09699654579 -0.0007513601616610977 -0.00036720694984811945
0.2206665576 -0.09699654579 -0.0007492402532654299 -0.0003485934679190026
0.2259880155 -0.09699654579 -0.0007472843047330469 -0.00032989418270940014
0.2313094735 -0.09699654579 -0.0007691778171696562 -0.0003274275251664015
0.2366309315 -0.09699654579 -0.0007968036601001584 -0.00032903512181323006
0.2419523895 -0.09699654579 -0.00082449842064109 -0.00033064297151255635
0.2472738475 -0.09699654579 -0.0008521819046650193 -0.0003322526755851919
0.2525953054 -0.09699654579 -0.0008780804098189529 -0.0003345530172852171
0.2579167783 -0.09699654579 -0.0009025861306927182 -0.00033736495566382606
0.2632382214 -0.09699654579 -0.0009250265929328495 -0.00037061280799434643
0.2685596943 -0.09699654579 -0.0009470484760987232 -0.00041023732516458415
0.2738811374 -0.09699654579 -0.0009677135805300264 -0.0004487177251307706
0.2792026103 -0.09699654579 -0.0009867281438859924 -0.00048601070313283434
0.2845240533 -0.09699654579 -0.0010061179765941267 -0.0005234329155512914
0.2898455262 -0.09699654579 -0.0010261781205751737 -0.0005615760498075763
0.2951669693 -0.09699654579 -0.001016500667822253 -0.0006118922047860067
0.3004884422 -0.09699654579 -0.001003331402289923 -0.0006619069391748774
0.3058098853 -0.09699654579 -0.0009906396678922367 -0.0007119834738406422
0.3111313581 -0.09699654579 -0.0009780286278861811 -0.0007620625428995925
0.3164528012 -0.09699654579 -0.0009654738115246296 -0.0008109519057704349
0.3217742741 -0.09699654579 -0.0009514245993982603 -0.0008576169398557954
0.3270957172 -0.09699654579 -0.0009157581564209153 -0.0008940982171974855
0.3324171901 -0.09699654579 -0.0008802372044257124 -0.0009305797784934094
0.3377386332 -0.09699654579 -0.0008450374166509686 -0.0009665892968913292
0.343060106 -0.09699654579 -0.0008103747221335141 -0.001002129228213056
0.3483815491 -0.09699654579 -0.0007755700952314365 -0.0010377719825040927
0.353703022 -0.09699654579 -0.0007384346154366197 -0.0010705380136724488
0.3590244651 -0.09699654579 -0.0006971485590671678 -0.0010970984841940973
0.364345938 -0.09699654579 -0.0006563514039015723 -0.001123036651694886
0.369667381 -0.09699654579 -0.0006154778894346966 -0.0011489956239774946
0.3749888539 -0.09699654579 -0.0005744668189159871 -0.0011748948581116441
0.380310297 -0.09699654579 -0.0005340135552320935 -0.0012002313427185998
0.3856317699 -0.09699654579 -0.0004870800177190473 -0.0012182193124076386
0.390953213 -0.09699654579 -0.00043834215721597015 -0.0012344100260262296
0.3962746859 -0.09699654579 -0.0003890501398623026 -0.0012508046487099264
0.4015961289 -0.09699654579 -0.00034070232739242753 -0.0012667753220266893
0.4069176018 -0.09699654579 -0.00029278193120871803 -0.001282348529214499
0.4122390449 -0.09699654579 -0.00024364972547770555 -0.0012921735931992616
0.4175605178 -0.09699654579 -0.00019288940791843584 -0.0012941533265014705
0.4228819609 -0.09699654579 -0.00014309153377854995 -0.0012964528726710815
0.4282034338 -0.09699654579 -9.364550604961869e-05 -0.0012987899986264314
0.4335248768 -0.09699654579 -4.4291711344499045e-05 -0.0013011244529610344
0.4388463497 -0.09699654579 4.239572858367246e-06 -0.0013009647994599578
0.4441677928 -0.09699654579 4.942383031795836e-05 -0.0012954339706678455
0.4494892657 -0.09699654579 9.46368071868066e-05 -0.0012901023840165714
0.4548107088 -0.09699654579 0.00014005602031662208 -0.001284756640816779
0.4601321816 -0.09699654579 0.00018542378052601648 -0.0012794055409625148
0.4654536247 -0.09699654579 0.00022926700198021828 -0.0012740666140047116
0.4707750976 -0.09699654579 0.00027168186943406437 -0.0012677224266815414
0.4760965407 -0.09699654579 0.00031425360184859403 -0.0012617641055457608
0.4814180136 -0.09699654579 0.0003566352087710187 -0.0012554450321539833
0.4867394567 -0.09699654579 0.00039907099805949905 -0.001249114477661042
0.4920609295 -0.09699654579 0.00044456004302897273 -0.0012405305607893727
0.4973823726 -0.09699654579 0.0004906380434165183 -0.0012313336144383227
0.5027038455 -0.09699654579 0.0005360359228528718 -0.0012213750694849918
0.5080252886 -0.09699654579 0.0005818894178540881 -0.0012120016692200315
0.5133467317 -0.09699654579 0.0006286529731435622 -0.0011992018375844306
0.5186682343 -0.09699654579 0.0006763969836573801 -0.0011819761997492208
0.5239896774 -0.09699654579 0.0007231384151543866 -0.0011650556011097782
0.5293111205 -0.09699654579 0.0007700940899684638 -0.0011478686676301593
0.5346325636 -0.09699654579 0.0008161951005043224 -0.001128423191741161
0.5399540663 -0.09699654579 0.0008591312472932741 -0.0011060130808536232
0.5452755094 -0.09699654579 0.0009021273748991011 -0.0010839773666383966
0.5505969524 -0.09699654579 0.0009451322526411267 -0.0010615096097554325
0.5559183955 -0.09699654579 0.0009855685454126463 -0.001037802116911147
0.5612398982 -0.09699654579 0.0010253935357954563 -0.0010137007795570907
0.5665613413 -0.09699654579 0.0010647696406318446 -0.0009895745837782207
0.5718827844 -0.09699654579 0.0011040411573119905 -0.0009652093421393032
0.5772042274 -0.09699654579 0.0011425781909128092 -0.0009406719537633137
0.5825257301 -0.09699654579 0.0011811122051990038 -0.0009161444450874982
0.5878471732 -0.09699654579 0.001220005630737268 -0.000891478215315263
0.5931686163 -0.09699654579 0.0012584891295305844 -0.0008666068710619853
0.5984900594 -0.09699654579 0.001297155476261601 -0.0008417392691683255
0.6038115621 -0.09699654579 0.0013370856692437277 -0.000816354727800267
0.6091330051 -0.09699654579 0.0013770811741671929 -0.0007909646938772481
0.6144544482 -0.09699654579 0.0014176259344110386 -0.0007650049524138911
0.6197758913 -0.09699654579 0.0014583822577831711 -0.0007390454095392776
0.625097394 -0.09699654579 0.001499061275698852 -0.0007127346363491395
0.6304188371 -0.09699654579 0.00154235754037099 -0.0006839955562875149
0.6357402802 -0.09699654579 0.0015861052277009208 -0.0006556888826220539
0.6410617828 -0.09699654579 0.0016293631424706106 -0.0006265501211306872
0.6463832259 -0.09699654579 0.0016744975280136782 -0.0005958763884177862
0.651704669 -0.09699654579 0.0017197660025852748 -0.0005648960923217471
0.6570261121 -0.09699654579 0.0017658156714353771 -0.0005321484000312079
0.6623476148 -0.09699654579 0.0018121967381693064 -0.0004987284325764169
0.6676690578 -0.09699654579 0.0018597143804730606 -0.0004628067205898696
0.6729905009 -0.09699654579 0.0019077747154335127 -0.00042667823707648317
0.678311944 -0.09699654579 0.001957014143300351 -0.00038977984480963933
0.6836334467 -0.09699654579 0.002007301597712296 -0.00035164177148059125
0.6889548898 -0.09699654579 0.002057920950972542 -0.0003125470595524724
0.6942763329 -0.09699654579 0.0021122107760426973 -0.00026949094385686115
0.6995977759 -0.09699654579 0.002167470884974846 -0.00022542967505077317
0.7049192786 -0.09699654579 0.0022230571533516127 -0.0001805430720102786
0.7102407217 -0.09699654579 0.002280181649991007 -0.00013271150320569942
0.7155621648 -0.09699654579 0.0023402303225026917 -8.240196197886827e-05
0.7208836079 -0.09699654579 0.0024027526856043257 -2.7987419627452515e-05
0.7262051105 -0.09699654579 0.0024663679204819607 2.9206301666509756e-05
0.7315265536 -0.09699654579 0.002532839619054039 8.736583121599918e-05
0.7368479967 -0.09699654579 0.002601364424884147 0.000153791003253998
0.7421694398 -0.09699654579 0.002670778905534669 0.00022417113025204803
0.7474909425 -0.09699654579 0.002742614302668796 0.00030037707604874174
0.7528123856 -0.09699654579 0.002816650374461017 0.0003834213489954196
0.7581338286 -0.09699654579 0.0028902764870858957 0.0004703721915173141
-0.3008363545 -0.09367749095 -0.0007159190853877624 0.00036566891697439185
-0.2955148816 -0.09367749095 -0.0007136910457118061 0.00038651157329366024
-0.2901934385 -0.09367749095 -0.0007124930357221309 0.0004062144117955038
-0.2848719656 -0.09367749095 -0.0007133053604410594 0.0004140824029806063
-0.2795505226 -0.09367749095 -0.0007191458062448422 0.0004124048637776115
-0.2742290497 -0.09367749095 -0.0007258009367638559 0.00040759349366554127
-0.2689076066 -0.09367749095 -0.0007354850449455507 0.0003988886264749662
-0.2635861337 -0.09367749095 -0.0007444549116477831 0.0003875094178734511