VARIABLES = X,Y,phix,phiy
ZONE I=200,J=200,F=POINT 
-0.3008363545 -0.1003156006 0.00010141896916135005 0.0005532973829466259
-0.2955148816 -0.1003156006 9.113067828357165e-05 0.00054214340709566
-0.2901934385 -0.1003156006 8.636216614869324e-05 0.0005320348816429726
-0.2848719656 -0.1003156006 8.169552358527275e-05 0.0005229173849767439
-0.2795505226 -0.1003156006 7.339710572311775e-05 0.0005164267748626956
-0.2742290497 -0.1003156006 5.914541147533633e-05 0.0005097512538764025
-0.2689076066 -0.1003156006 4.2933645873657275e-05 0.000503615807632766
-0.2635861337 -0.1003156006 4.6915133969396666e-05 0.0004996958469277348
-0.2582646906 -0.1003156006 5.380881320728531e-05 0.0004961072291407386
-0.2529432178 -0.1003156006 6.184515965021083e-05 0.0004921325517170417
-0.2476217598 -0.1003156006 7.076291773467093e-05 0.000486934485936959
-0.2423003018 -0.1003156006 7.018666676806037e-05 0.00047140286908832105
-0.2369788438 -0.1003156006 5.8411850005949734e-05 0.00045072729114486434
-0.2316573858 -0.1003156006 4.10418996466508e-05 0.0004275827573470094
-0.2263359278 -0.1003156006 2.2596102683764576e-05 0.0003992013466312804
-0.2210144699 -0.1003156006 2.107455303983136e-05 0.00036021333500195284
-0.2156930119 -0.1003156006 1.985937935338893e-05 0.0003192213558156242
-0.2103715539 -0.1003156006 2.0986274829690224e-05 0.0002724146001326983
-0.2050500959 -0.1003156006 4.376390624790491e-05 0.000245407371358336
-0.1997286379 -0.1003156006 6.923372565576157e-05 0.00021858769693811156
-0.19440718 -0.1003156006 0.00010447146794471212 0.00019129659214228354
-0.189085722 -0.1003156006 0.00012445464839983412 0.00017874634471781855
-0.183764264 -0.1003156006 0.00014287454820629793 0.00016694701283194338
-0.178442806 -0.1003156006 0.00016147883443387012 0.00015352955512699725
-0.173121348 -0.1003156006 0.00017819400129690657 0.00014639576418743318
-0.16779989 -0.1003156006 0.0001945757804422648 0.0001399024381301181
-0.1624784321 -0.1003156006 0.00020850298105659973 0.00013592390988062726
-0.1571569741 -0.1003156006 0.00022463620539088397 0.00012802416973151928
-0.1518355161 -0.1003156006 0.00024073433922361013 0.00011873626051816484
-0.1465140581 -0.1003156006 0.000256766308405008 0.00010984346753211201
-0.1411926001 -0.1003156006 0.00027089099024815266 0.00010342573666112489
-0.1358711421 -0.1003156006 0.0002819712727621249 0.00010075412715545662
-0.1305496842 -0.1003156006 0.00029314661400447225 9.807721828650526e-05
-0.1252282262 -0.1003156006 0.0003029111014217891 9.491306651037509e-05
-0.1199067682 -0.1003156006 0.0003144425987149771 9.030550772045473e-05
-0.1145853102 -0.1003156006 0.00032618280314243304 8.518664332462008e-05
-0.1092638522 -0.1003156006 0.00033796443104205107 7.990627493223088e-05
-0.1039423943 -0.1003156006 0.00034980384418944576 7.488125568237424e-05
-0.09862093627 -0.1003156006 0.00036080722844444597 7.0794790177153e-05
-0.09329947084 -0.1003156006 0.00037149779855871567 6.679473974877425e-05
-0.08797801286 -0.1003156006 0.00038228152673225183 6.280062648771993e-05
-0.08265655488 -0.1003156006 0.0003930410700102814 5.896734810064619e-05
-0.0773350969 -0.1003156006 0.0004039626905314757 5.621014036278583e-05
-0.07201363891 -0.1003156006 0.00041493679146075395 5.350102128083192e-05
-0.06669218093 -0.1003156006 0.0004260009132996234 5.079438013577332e-05
-0.06137072667 -0.1003156006 0.00043722572618371333 4.769655605296778e-05
-0.05604926869 -0.1003156006 0.00045152148795142355 4.3883789605212696e-05
-0.05072781071 -0.1003156006 0.0004665816579529303 3.984372844155622e-05
-0.045406349 -0.1003156006 0.0004815106061312728 3.581107137944773e-05
-0.04008489102 -0.1003156006 0.0004967303528034732 3.177178323554254e-05
-0.03476343304 -0.1003156006 0.0005112273046192313 2.876135156326204e-05
-0.02944197692 -0.1003156006 0.0005240172105078177 2.775645789479811e-05
-0.02412051894 -0.1003156006 0.0005368705288019352 2.681256128561182e-05
-0.01879905909 -0.1003156006 0.0005497603486666077 2.5948159527886787e-05
-0.01347760204 -0.1003156006 0.0005625376450050116 2.500673849228294e-05
-0.00815614406 -0.1003156006 0.0005743365788659356 2.535859640866606e-05
-0.00283468538 -0.1003156006 0.0005852492517430181 2.660242220397873e-05
0.002486772602 -0.1003156006 0.0005968167903722933 2.7882442548335212e-05
0.007808230817 -0.1003156006 0.0006083325869642014 2.9172115737642358e-05
0.0131296888 -0.1003156006 0.0006194567897429289 3.0423261794592952e-05
0.01845114678 -0.1003156006 0.0006294739678870638 3.322009543572744e-05
0.02377260476 -0.1003156006 0.0006389681610923246 3.719777344211143e-05
0.02909406275 -0.1003156006 0.0006488651381176571 4.139064716348324e-05
0.03441552073 -0.1003156006 0.0006586956071759429 4.55830092640357e-05
0.03973697871 -0.1003156006 0.0006682343860074441 4.959270787895588e-05
0.04505843669 -0.1003156006 0.000675563668561235 5.2796245953097604e-05
0.05037989467 -0.1003156006 0.0006797616397091948 5.4741065011676716e-05
0.05570135266 -0.1003156006 0.0006837579203272948 5.685620979490277e-05
0.06102281436 -0.1003156006 0.000687913246458504 5.897560754232156e-05
0.06634426862 -0.1003156006 0.0006920099738186709 6.0970376102671414e-05
0.0716657266 -0.1003156006 0.0006961327188631325 6.287942788266996e-05
0.07698718458 -0.1003156006 0.000700897471484084 6.276680598375089e-05
0.08230864257 -0.1003156006 0.0007058614880701607 6.243320906420401e-05
0.08763010055 -0.1003156006 0.0007108941873646301 6.209150606650219e-05
0.09295155853 -0.1003156006 0.0007158272981626277 6.177491307951907e-05
0.09827301651 -0.1003156006 0.0007206088684336511 6.146121505096412e-05
0.1035944745 -0.1003156006 0.0007257121621283138 6.213302008108131e-05
0.1089159325 -0.1003156006 0.0007314057182950445 6.482087485527887e-05
0.1142373979 -0.1003156006 0.0007371126201816875 6.750643182375178e-05
0.1195588559 -0.1003156006 0.0007423573741083179 7.011959447965037e-05
0.1248803139 -0.1003156006 0.0007475154095876505 7.277203850661283e-05
0.1302017719 -0.1003156006 0.0007531181153345025 7.541725920972637e-05
0.1355232298 -0.1003156006 0.000756198114783784 7.947079803444801e-05
0.1408446878 -0.1003156006 0.0007575201829804127 8.44466070569805e-05
0.1461661458 -0.1003156006 0.0007585631134916971 8.906536476965888e-05
0.1514876038 -0.1003156006 0.0007595748964001821 9.369053515236386e-05
0.1568090618 -0.1003156006 0.0007606484502501603 9.831112421431837e-05
0.1621305197 -0.1003156006 0.0007619232154657666 0.00010294813188760678
0.1674519777 -0.1003156006 0.0007585599529623382 0.00010720241295485803
0.1727734357 -0.1003156006 0.0007534234879017125 0.00011148084841191961
0.1780948937 -0.1003156006 0.0007481766195997232 0.0001157507501069268
0.1834163517 -0.1003156006 0.0007430525814503292 0.00012003031804358168
0.1887378097 -0.1003156006 0.0007378184324790952 0.0001240508512435056
0.1940592676 -0.1003156006 0.0007324938093312652 0.00012763256170728285
0.1993807256 -0.1003156006 0.0007223902404720808 0.00012743869880670004
0.2047021836 -0.1003156006 0.0007104921462954531 0.0001259663191063047
0.2100236416 -0.1003156006 0.0006987847622355039 0.00012453372694138764
0.2153450996 -0.1003156006 0.0006874823266300136 0.00012243422566873323
0.2206665576 -0.1003156006 0.0006759972524027091 0.00012056303175940812
0.2259880155 -0.1003156006 0.0006644468478967908 0.00011868440760875281
0.2313094735 -0.1003156006 0.0006509543438320827 0.00010861914371473422
0.2366309315 -0.1003156006 0.0006375796834185657 9.640015010947987e-05
0.2419523895 -0.1003156006 0.00062449464343361 8.421213214111821e-05
0.2472738475 -0.1003156006 0.0006115673252594945 7.215247347305186e-05
0.2525953054 -0.1003156006 0.0005985628776554232 6.040989278567042e-05
0.2579167783 -0.1003156006 0.0005861544583418574 4.8864730762728167e-05
0.2632382214 -0.1003156006 0.0005799620259128595 2.958183133304776e-05
0.2685596943 -0.1003156006 0.0005751967566239112 8.198222949799381e-06
0.2738811374 -0.1003156006 0.000570492262034701 -1.3525762996275399e-05
0.2792026103 -0.1003156006 0.0005656786946102611 -3.499400875344848e-05
0.2845240533 -0.1003156006 0.0005613453876665732 -5.5603425935702076e-05
0.2898455262 -0.1003156006 0.0005569709421014695 -7.621599719671965e-05
0.2951669693 -0.1003156006 0.0005654187205665296 -9.660385951358983e-05
0.3004884422 -0.1003156006 0.0005755912951810178 -0.0001168227548858046
0.3058098853 -0.1003156006 0.000585002301364883 -0.00013597622492133888
0.3111313581 -0.1003156006 0.0005942395984028283 -0.0001551131942395761
0.3164528012 -0.1003156006 0.0006035370507304711 -0.00017425326503414998
0.3217742741 -0.1003156006 0.000613146354205322 -0.00019332439759554677
0.3270957172 -0.1003156006 0.0006289293003944801 -0.0002011222104980566
0.3324171901 -0.1003156006 0.0006449240927664264 -0.00020889720585767977
0.3377386332 -0.1003156006 0.0006609279216814733 -0.00021666991132536942
0.343060106 -0.1003156006 0.0006769334947325913 -0.00022443339834455858
0.3483815491 -0.1003156006 0.0006918616720130216 -0.00023219093047501102
0.353703022 -0.1003156006 0.0007054366605137917 -0.00023737389679832918
0.3590244651 -0.1003156006 0.0007166050635082918 -0.00023698950086851344
0.364345938 -0.1003156006 0.000727692269515122 -0.00023659068516815223
0.369667381 -0.1003156006 0.0007386145626226449 -0.00023669644408215153
0.3749888539 -0.1003156006 0.0007496674101549062 -0.00023668295415005724
0.380310297 -0.1003156006 0.0007605227724661556 -0.00023656979429413982
0.3856317699 -0.1003156006 0.0007693126449374295 -0.00023433850523113512
0.390953213 -0.1003156006 0.0007772825619082746 -0.00023154798610413598
0.3962746859 -0.1003156006 0.0007850910445399673 -0.00022884542924957461
0.4015961289 -0.1003156006 0.0007928168821446707 -0.00022612108055439356
0.4069176018 -0.1003156006 0.0008008925373657218 -0.00022348724245752543
0.4122390449 -0.1003156006 0.0008079310069892955 -0.0002186657085130661
0.4175605178 -0.1003156006 0.0008140933501401285 -0.0002101847532835173
0.4228819609 -0.1003156006 0.0008207300288724365 -0.00020164675056278885
0.4282034338 -0.1003156006 0.0008272311194756697 -0.00019303752361388553
0.4335248768 -0.1003156006 0.0008329049358504989 -0.00018510910930380676
0.4388463497 -0.1003156006 0.0008365205911323266 -0.00017535252864852224
0.4441677928 -0.1003156006 0.0008350432028287735 -0.00016027930030754466
0.4494892657 -0.1003156006 0.0008335473594253448 -0.00014544486344495431
0.4548107088 -0.1003156006 0.0008313710242969969 -0.00013167238465538745
0.4601321816 -0.1003156006 0.0008295979928176187 -0.00011733401434790436
0.4654536247 -0.1003156006 0.0008230719177523546 -0.00010222341231670335
0.4707750976 -0.1003156006 0.0008085873887398784 -8.656734290587363e-05
0.4760965407 -0.1003156006 0.0007945523655125466 -7.224673894643278e-05
0.4814180136 -0.1003156006 0.0007804682673809206 -5.790033514083873e-05
0.4867394567 -0.1003156006 0.0007663841371269383 -4.3509435331644166e-05
0.4920609295 -0.1003156006 0.0007434909187413816 -3.269758551889701e-05
0.4973823726 -0.1003156006 0.0007184923215856391 -2.3402084300664157e-05
0.5027038455 -0.1003156006 0.0006933799108231411 -1.4070141280326961e-05
0.5080252886 -0.1003156006 0.0006683020510983506 -4.734836666262506e-06
0.5133467317 -0.1003156006 0.0006417374921626596 -2.38828982725931e-07
0.5186682343 -0.1003156006 0.0006104049682917088 6.406821982146793e-07
0.5239896774 -0.1003156006 0.0005790594668882141 1.580959212870983e-06
0.5293111205 -0.1003156006 0.0005481664970187724 2.2901675546925934e-06
0.5346325636 -0.1003156006 0.0005173061653923749 -6.080403132143174e-07
0.5399540663 -0.1003156006 0.00048419567522912753 -7.260089757689166e-06
0.5452755094 -0.1003156006 0.0004505861565789645 -1.3837945859566131e-05
0.5505969524 -0.1003156006 0.0004179526018599633 -2.0577045104108063e-05
0.5559183955 -0.1003156006 0.0003851629701057822 -3.173923498754649e-05
0.5612398982 -0.1003156006 0.0003505922621079071 -4.411897240742898e-05
0.5665613413 -0.1003156006 0.0003163747060818921 -5.650116919782389e-05
0.5718827844 -0.1003156006 0.0002830683265483447 -7.095662821420843e-05
0.5772042274 -0.1003156006 0.0002481848155287092 -8.81263293956548e-05
0.5825257301 -0.1003156006 0.0002134482806943865 -0.00010525759119966724
0.5878471732 -0.1003156006 0.00017889378097223714 -0.00012409156745467334
0.5931686163 -0.1003156006 0.00014377423082969628 -0.00014502571056512517
0.5984900594 -0.1003156006 0.00010830245538479154 -0.00016564680578884145
0.6038115621 -0.1003156006 7.236007490667225e-05 -0.00018887892597703647
0.6091330051 -0.1003156006 3.679692107345061e-05 -0.00021259539026699978
0.6144544482 -0.1003156006 7.086823586026907e-07 -0.00023741872680484402
0.6197758913 -0.1003156006 -3.5436911257021105e-05 -0.0002635160045277245
0.625097394 -0.1003156006 -7.184482357679178e-05 -0.00029010284677851816
0.6304188371 -0.1003156006 -0.00010851972119624924 -0.0003176768739030373
0.6357402802 -0.1003156006 -0.0001454919162128373 -0.000346024672728513
0.6410617828 -0.1003156006 -0.00018347642607045912 -0.0003746249464460006
0.6463832259 -0.1003156006 -0.00022196601519163472 -0.0004036279565249706
0.651704669 -0.1003156006 -0.00026068354408539983 -0.00043249980862300296
0.6570261121 -0.1003156006 -0.0003009878817618647 -0.0004621141646133401
0.6623476148 -0.1003156006 -0.00034282321540289286 -0.0004911760119213503
0.6676690578 -0.1003156006 -0.0003860163797364084 -0.0005203423810197543
0.6729905009 -0.1003156006 -0.0004327709204144841 -0.00054931463190081
0.678311944 -0.1003156006 -0.0004817942785280708 -0.000579018291347057
0.6836334467 -0.1003156006 -0.0005339286032633143 -0.0006083634490257502
0.6889548898 -0.1003156006 -0.0005907071921246397 -0.0006373090476481175
0.6942763329 -0.1003156006 -0.0006523331039247922 -0.0006678233028064765
0.6995977759 -0.1003156006 -0.0007192443997113719 -0.0006985758591327003
0.7049192786 -0.1003156006 -0.0007913416210934989 -0.0007314269440667155
0.7102407217 -0.1003156006 -0.0008715371887751596 -0.00076527557923111
0.7155621648 -0.1003156006 -0.000959811059800236 -0.000803949779659695
0.7208836079 -0.1003156006 -0.0010557133635225062 -0.0008476582705684398
0.7262051105 -0.1003156006 -0.0011597764594695077 -0.0008957836325782447
0.7315265536 -0.1003156006 -0.0012743773977015708 -0.0009525892995804869
0.7368479967 -0.1003156006 -0.0014016863173360085 -0.0010205096720083706
0.7421694398 -0.1003156006 -0.001539253292660722 -0.0010991690772499236
0.7474909425 -0.1003156006 -0.0016759313585511925 -0.0011906682576932346
0.7528123856 -0.1003156006 -0.0018287214054581744 -0.0013008139101454601
0.7581338286 -0.1003156006 -0.0019886374890804577 -0.001428551453094108
-0.3008363545 -0.09699654579 0.0001098841317931757 0.0005550901469937809
-0.2955148816 -0.09699654579 9.861377237667928e-05 0.0005434424885324066
-0.2901934385 -0.09699654579 9.204842296029389e-05 0.0005333949946227088
-0.2848719656 -0.09699654579 8.617640644658752e-05 0.0005252564390506407
-0.2795505226 -0.09699654579 8.016163092375804e-05 0.0005192836591189455
-0.2742290497 -0.09699654579 6.723023998139488e-05 0.0005139263608748871
-0.2689076066 -0.09699654579 4.841199742091078e-05 0.0005074222189846851
-0.2635861337 -0.09699654579 3.6609954734719886e-05 0.0005020280066466953
-0.2582646906 -0.09699654579 4.251223281021728e-05 0.0004994489538371531
-0.2529432178 -0.09699654579 4.9929372516913925e-05 0.0004952427126669098
-0.2476217598 -0.09699654579 6.08535701330149e-05 0.00048781218398504303
-0.2423003018 -0.09699654579 6.676361813288937e-05 0.00047596647780330796
-0.2369788438 -0.09699654579 5.26455995870297e-05 0.00045574195252619617
-0.2316573858 -0.09699654579 3.258547423679058e-05 0.0004299356121830151
-0.2263359278 -0.09699654579 6.776063603575587e-06 0.0004037753322157228
-0.2210144699 -0.09699654579 2.0895267897686745e-06 0.00036573524478102835
-0.2156930119 -0.09699654579 2.954076373212788e-06 0.0003194117736509728
-0.2103715539 -0.09699654579 2.0826109241996537e-06 0.00026980408332722295
-0.2050500959 -0.09699654579 2.3496445461557195e-05 0.00023706313228088585
-0.1997286379 -0.09699654579 5.919560766751702e-05 0.0002097670104755702
-0.19440718 -0.09699654579 9.702117760969319e-05 0.00017979288360559702
-0.189085722 -0.09699654579 0.00012455216379032765 0.00016039516047941402
-0.183764264 -0.09699654579 0.00014411238229480498 0.00014512436113635406
-0.178442806 -0.09699654579 0.00016651769483442256 0.00013049167586440198
-0.173121348 -0.09699654579 0.00018349084185065727 0.00012303842459305148
-0.16779989 -0.09699654579 0.00019634133670394302 0.00012083906705745513
-0.1624784321 -0.09699654579 0.00020866630632463803 0.00012282628579813665
-0.1571569741 -0.09699654579 0.0002235579120107145 0.00012071195313387909
-0.1518355161 -0.09699654579 0.00023885558370254518 0.00011350723047616347
-0.1465140581 -0.09699654579 0.00025407736399001284 0.00010582380033891041
-0.1411926001 -0.09699654579 0.00026786611091492336 9.917877979219466e-05
-0.1358711421 -0.09699654579 0.00027750725669338614 9.593184924240744e-05
-0.1305496842 -0.09699654579 0.0002864953908746395 9.239670417499823e-05
-0.1252282262 -0.09699654579 0.00029604935410792034 8.869675149346993e-05
-0.1199067682 -0.09699654579 0.0003074353641593722 8.394642254702555e-05
-0.1145853102 -0.09699654579 0.00031996428518449375 7.857637277368272e-05
-0.1092638522 -0.09699654579 0.00033225217051195563 7.32497853051279e-05
-0.1039423943 -0.09699654579 0.0003442320367347947 6.812877315807003e-05
-0.09862093627 -0.09699654579 0.00035502384880312674 6.425365120832034e-05
-0.09329947084 -0.09699654579 0.00036530565293417386 6.041112191484708e-05
-0.08797801286 -0.09699654579 0.0003753193528317428 5.659925285704473e-05
-0.08265655488 -0.09699654579 0.0003855635785401123 5.2901585490674e-05
-0.0773350969 -0.09699654579 0.0003967733969897915 4.970531360043826e-05
-0.07201363891 -0.09699654579 0.00040805190788638926 4.6266674733987636e-05
-0.06669218093 -0.09699654579 0.00041954526663134445 4.280530046961012e-05
-0.06137072667 -0.09699654579 0.00043226342541231725 3.918361753217171e-05
-0.05604926869 -0.09699654579 0.0004484157536308181 3.512677046586761e-05
-0.05072781071 -0.09699654579 0.0004651808295308616 3.09953586537662e-05
-0.045406349 -0.09699654579 0.00048187110507888134 2.6865137718723464e-05
-0.04008489102 -0.09699654579 0.0004989807557941054 2.2643131965251677e-05
-0.03476343304 -0.09699654579 0.0005150216994052743 1.956758786030364e-05
-0.02944197692 -0.09699654579 0.000528894270604947 1.8918279830965427e-05
-0.02412051894 -0.09699654579 0.0005427323976344979 1.820395950163916e-05
-0.01879905909 -0.09699654579 0.000556539234864606 1.754204068726694e-05
-0.01347760204 -0.09699654579 0.0005704619510071756 1.696510798000451e-05
-0.00815614406 -0.09699654579 0.0005833571395950091 1.7542249447709222e-05
-0.00283468538 -0.09699654579 0.0005956511646220302 1.890655911630134e-05
0.002486772602 -0.09699654579 0.0006080664508510162 2.0319433112877573e-05
0.007808230817 -0.09699654579 0.0006205670457679963 2.1722215477162155e-05
0.0131296888 -0.09699654579 0.0006328419923093539 2.311059911795743e-05
0.01845114678 -0.09699654579 0.0006439462512164072 2.6346184565707415e-05
0.02377260476 -0.09699654579 0.0006542996217398086 3.0888711355659605e-05
0.02909406275 -0.09699654579 0.0006647451536156101 3.5676261938644415e-05
0.03441552073 -0.09699654579 0.0006752209373021667 4.0491407441160626e-05
0.03973697871 -0.09699654579 0.0006854812058763182 4.505492700158472e-05
0.04505843669 -0.09699654579 0.0006931413212663221 4.877651033567553e-05
0.05037989467 -0.09699654579 0.0006969741442664072 5.111735125118952e-05
0.05570135266 -0.09699654579 0.0007007002639339561 5.3520767796170334e-05
0.06102281436 -0.09699654579 0.0007043673243568655 5.6021644938896014e-05
0.06634426862 -0.09699654579 0.0007082083588654747 5.8329337226018625e-05
0.0716657266 -0.09699654579 0.0007119881152205747 6.063590770204748e-05
0.07698718458 -0.09699654579 0.0007165595828771647 6.027804358425005e-05
0.08230864257 -0.09699654579 0.0007212066101746671 5.97043461005833e-05
0.08763010055 -0.09699654579 0.0007257776653132341 5.922913218789746e-05
0.09295155853 -0.09699654579 0.0007302267228397706 5.8726566199613656e-05
0.09827301651 -0.09699654579 0.0007349624569761578 5.8208932677424356e-05
0.1035944745 -0.09699654579 0.0007397560446426371 5.8873392904435844e-05
0.1089159325 -0.09699654579 0.0007456003439814774 6.172709689867084e-05
0.1142373979 -0.09699654579 0.0007512574825862629 6.459195324445758e-05
0.1195588559 -0.09699654579 0.0007565929106461618 6.740088922193064e-05
0.1248803139 -0.09699654579 0.0007619827895082882 7.021217441280744e-05
0.1302017719 -0.09699654579 0.0007675299601028605 7.309159333517733e-05
0.1355232298 -0.09699654579 0.0007702679116231388 7.779266058596005e-05
0.1408446878 -0.09699654579 0.0007709394592523641 8.325987383866874e-05
0.1461661458 -0.09699654579 0.0007717534272384714 8.869935545975641e-05
0.1514876038 -0.09699654579 0.0007734310120909538 9.40853587731494e-05
0.1568090618 -0.09699654579 0.0007751045928752514 9.948292624948868e-05
0.1621305197 -0.09699654579 0.000776565568806142 0.00010461792640093362
0.1674519777 -0.09699654579 0.0007726782806791661 0.00010944584773327368
0.1727734357 -0.09699654579 0.0007671555280472354 0.00011427833933319354
0.1780948937 -0.09699654579 0.0007615196756158957 0.0001194013600543632
0.1834163517 -0.09699654579 0.0007559227283730893 0.00012440931237194214
0.1887378097 -0.09699654579 0.0007502734007620384 0.0001289408590012661
0.1940592676 -0.09699654579 0.0007445600935850023 0.0001334777764784925
0.1993807256 -0.09699654579 0.0007329897996805542 0.0001340811482018827
0.2047021836 -0.09699654579 0.0007199334382390456 0.00013357193639953907
0.2100236416 -0.09699654579 0.0007072709635821928 0.00013257408062837745
0.2153450996 -0.09699654579 0.0006946425895594722 0.00013148400593809796
0.2206665576 -0.09699654579 0.0006819969088421923 0.00013039735767806377
0.2259880155 -0.09699654579 0.0006692802757122603 0.00012931356900738961
0.2313094735 -0.09699654579 0.0006546741667524615 0.00011908181287682974
0.2366309315 -0.09699654579 0.0006403799467488742 0.00010649145684728353
0.2419523895 -0.09699654579 0.0006259678330945858 9.388781427642106e-05
0.2472738475 -0.09699654579 0.0006115572072466074 8.129786000797405e-05
0.2525953054 -0.09699654579 0.0005976195524326991 6.892013507802992e-05
0.2579167783 -0.09699654579 0.0005842241052490349 5.6613951501044176e-05
0.2632382214 -0.09699654579 0.0005774956095934114 3.485404377307975e-05
0.2685596943 -0.09699654579 0.0005721155523283032 1.1218055551226821e-05
0.2738811374 -0.09699654579 0.0005669403259385389 -1.174047645832552e-05
0.2792026103 -0.09699654579 0.0005618956643330273 -3.375731447082815e-05
0.2845240533 -0.09699654579 0.0005568619889401375 -5.5984421481879446e-05
0.2898455262 -0.09699654579 0.0005516251525606906 -7.861140842923279e-05
0.2951669693 -0.09699654579 0.0005610906120738617 -0.00010040891247641573
0.3004884422 -0.09699654579 0.0005717502617523145 -0.00012116635640139978
0.3058098853 -0.09699654579 0.0005824623914345241 -0.0001419362503799106
0.3111313581 -0.09699654579 0.0005931961339337235 -0.00016270154399808436
0.3164528012 -0.09699654579 0.000603677566262203 -0.00018312217971085354
0.3217742741 -0.09699654579 0.0006137560365161763 -0.00020210844010814242
0.3270957172 -0.09699654579 0.0006306302415459101 -0.00020970567416719998
0.3324171901 -0.09699654579 0.0006475446815699938 -0.00021730864786125156
0.3377386332 -0.09699654579 0.0006637829285990309 -0.0002250393340577241
0.343060106 -0.09699654579 0.0006797439149470265 -0.0002328047984058409
0.3483815491 -0.09699654579 0.0006956779683989454 -0.00024047274637296429
0.353703022 -0.09699654579 0.000710037621936974 -0.000245107710322727
0.3590244651 -0.09699654579 0.0007210017936447524 -0.0002442956044916429
0.364345938 -0.09699654579 0.0007315898884027118 -0.00024375650810736117
0.369667381 -0.09699654579 0.0007422821416014533 -0.00024317743764572358
0.3749888539 -0.09699654579 0.0007536223074567449 -0.00024259670011579998
0.380310297 -0.09699654579 0.0007648354002011302 -0.00024229298945910993
0.3856317699 -0.09699654579 0.0007735325335312601 -0.0002400061152179649
0.390953213 -0.09699654579 0.0007817813172008597 -0.0002371937785666345
0.3962746859 -0.09699654579 0.0007899330659232346 -0.00023443834562202902
0.4015961289 -0.09699654579 0.0007981560746023524 -0.00023161044344818514
0.4069176018 -0.09699654579 0.0008061725600284549 -0.0002288825150505056
0.4122390449 -0.09699654579 0.0008137669459849161 -0.00022329714823745978
0.4175605178 -0.09699654579 0.0008210555996542149 -0.00021403736231267957
0.4228819609 -0.09699654579 0.000827468556631542 -0.0002050575220751473
0.4282034338 -0.09699654579 0.0008338557162488692 -0.00019638301672928425
0.4335248768 -0.09699654579 0.0008401811081432124 -0.0001876202325622104
0.4388463497 -0.09699654579 0.0008446804063775884 -0.0001759877199577788
0.4441677928 -0.09699654579 0.0008430607816101523 -0.0001597643237254429
0.4494892657 -0.09699654579 0.0008418999544058886 -0.00014377827345302295
0.4548107088 -0.09699654579 0.0008409688620359388 -0.00012778506633490604
0.4601321816 -0.09699654579 0.0008397282367578152 -0.00011202525113821122
0.4654536247 -0.09699654579 0.0008327915465273433 -9.684628611989919e-05
0.4707750976 -0.09699654579 0.0008180656759933606 -8.014291245180268e-05
0.4760965407 -0.09699654579 0.000803234821414687 -6.244209219860838e-05
0.4814180136 -0.09699654579 0.0007885956842361939 -4.571856937013204e-05
0.4867394567 -0.09699654579 0.0007741497452765341 -3.0096667818431276e-05
0.4920609295 -0.09699654579 0.0007502135230007694 -1.829831162949374e-05
0.4973823726 -0.09699654579 0.0007236245316624121 -7.4927949369155544e-06
0.5027038455 -0.09699654579 0.0006978129915823251 2.351120873022e-06
0.5080252886 -0.09699654579 0.0006718773436710788 1.264399350499253e-05
0.5133467317 -0.09699654579 0.0006425686043425953 1.8875059859257743e-05
0.5186682343 -0.09699654579 0.0006099705321360613 2.021451945759739e-05
0.5239896774 -0.09699654579 0.0005786658462406102 2.1039413047077884e-05
0.5293111205 -0.09699654579 0.0005466641061449579 2.209727260325302e-05
0.5346325636 -0.09699654579 0.0005132192132064597 2.010921323213841e-05
0.5399540663 -0.09699654579 0.00047903619435244523 1.3557356977589006e-05
0.5452755094 -0.09699654579 0.0004454915421464406 6.936430139860214e-06
0.5505969524 -0.09699654579 0.0004115095251485766 4.1192032216110964e-07
0.5559183955 -0.09699654579 0.00037641811786276366 -1.032029056522235e-05
0.5612398982 -0.09699654579 0.00034202514158955625 -2.2647676725981335e-05
0.5665613413 -0.09699654579 0.0003075603160257898 -3.4977922992682413e-05
0.5718827844 -0.09699654579 0.00027189106823069357 -4.905101911532132e-05
0.5772042274 -0.09699654579 0.00023649676767828243 -6.611147073809151e-05
0.5825257301 -0.09699654579 0.0002013547020678077 -8.317613088876832e-05
0.5878471732 -0.09699654579 0.00016547926541454462 -0.00010162222989934342
0.5931686163 -0.09699654579 0.00012966414481010747 -0.00012243303613178067
0.5984900594 -0.09699654579 9.347713293622289e-05 -0.00014332748162599172
0.6038115621 -0.09699654579 5.7508835738149e-05 -0.0001661883295601657
0.6091330051 -0.09699654579 2.1261007267228274e-05 -0.00019022658528623524
0.6144544482 -0.09699654579 -1.4776081395131792e-05 -0.00021469190189966393
0.6197758913 -0.09699654579 -5.165023730931519e-05 -0.00024089676186933964
0.625097394 -0.09699654579 -8.838313684698522e-05 -0.00026749663430164397
0.6304188371 -0.09699654579 -0.00012563526099697967 -0.00029474901415642947
0.6357402802 -0.09699654579 -0.00016308873830237495 -0.000322292388166579
0.6410617828 -0.09699654579 -0.0002008264113487664 -0.0003508034026584557
0.6463832259 -0.09699654579 -0.00023915795868835737 -0.00037908504144159926
0.651704669 -0.09699654579 -0.0002782071345134537 -0.0004076537905258234
0.6570261121 -0.09699654579 -0.00031872515331384443 -0.00043622616877263964
0.6623476148 -0.09699654579 -0.00036070735742301354 -0.00046491683075368644
0.6676690578 -0.09699654579 -0.0004047375251727572 -0.0004923275510565532
0.6729905009 -0.09699654579 -0.00045048695805165423 -0.0005201786332616087
0.678311944 -0.09699654579 -0.0004991083900289062 -0.0005470137356141556
0.6836334467 -0.09699654579 -0.0005506749924333753 -0.0005736461881349905
0.6889548898 -0.09699654579 -0.0006070250957841218 -0.0006009911344788433
0.6942763329 -0.09699654579 -0.0006684178992128666 -0.000627413574097288
0.6995977759 -0.09699654579 -0.0007357339319347989 -0.0006536985733152737
0.7049192786 -0.09699654579 -0.0008089801700416748 -0.0006822099972285798
0.7102407217 -0.09699654579 -0.000890316674911348 -0.0007126223605106099
0.7155621648 -0.09699654579 -0.0009815347528119977 -0.0007466707032130686
0.7208836079 -0.09699654579 -0.0010827349458289437 -0.000782708505394026
0.7262051105 -0.09699654579 -0.0011937597178005182 -0.0008254615586697062
0.7315265536 -0.09699654579 -0.0013113312012387238 -0.0008765948931264292
0.7368479967 -0.09699654579 -0.0014436759154633644 -0.0009355189250437361
0.7421694398 -0.09699654579 -0.0015862597864320723 -0.0010088643324729432
0.7474909425 -0.09699654579 -0.0017407812141456598 -0.0010944211978134474
0.7528123856 -0.09699654579 -0.0019027956755194458 -0.0011994755918621263
0.7581338286 -0.09699654579 -0.002072267272755756 -0.0013254350806744864
-0.3008363545 -0.09367749095 0.00011968302085331055 0.000556585903392346
-0.2955148816 -0.09367749095 0.00011209221013690454 0.0005449969172679598
-0.2901934385 -0.09367749095 9.991206536167744e-05 0.0005349115585135971
-0.2848719656 -0.09367749095 9.584787697479998e-05 0.0005282989082858929
-0.2795505226 -0.09367749095 8.932783062751034e-05 0.0005229082478900211
-0.2742290497 -0.09367749095 7.389722805988916e-05 0.0005181725522314347
-0.2689076066 -0.09367749095 5.564212187957776e-05 0.0005131985103776553
-0.2635861337 -0.09367749095 3.0635227939907665e-05 0.0005066542190000619
-0.2582646906 -0.09367749095 3.093454192884935e-05 0.0005026201389487338
-0.2529432178 -0.09367749095 3.6009378633091935e-05 0.0004985409331208699