VARIABLES = X,Y,phix,phiy
ZONE I=200,J=200,F=POINT 
-0.3008363545 -0.1003156006 -0.0005888129171768346 0.0009630543799261747
-0.2955148816 -0.1003156006 -0.0005806287679853776 0.000940545795563618
-0.2901934385 -0.1003156006 -0.0005735392304072412 0.0009207216150464766
-0.2848719656 -0.1003156006 -0.0005662668777961308 0.0009014485746286343
-0.2795505226 -0.1003156006 -0.0005578428963007638 0.0008771460356472952
-0.2742290497 -0.1003156006 -0.000541786441804743 0.0008501637986180001
-0.2689076066 -0.1003156006 -0.0005274668087732222 0.0008240582463320416
-0.2635861337 -0.1003156006 -0.0005223151731118359 0.0007973708675702936
-0.2582646906 -0.1003156006 -0.0005201896266981172 0.0007630431734686766
-0.2529432178 -0.1003156006 -0.0005207361436217237 0.0007248562949138694
-0.2476217598 -0.1003156006 -0.0005242834734753189 0.0006850505155216247
-0.2423003018 -0.1003156006 -0.0005111748462572928 0.0006505319248809752
-0.2369788438 -0.1003156006 -0.00047708748059817254 0.000617217127428893
-0.2316573858 -0.1003156006 -0.00044359319612351526 0.0005837086557603193
-0.2263359278 -0.1003156006 -0.0004088252543977967 0.0005554947300582471
-0.2210144699 -0.1003156006 -0.0003691588766521307 0.00054038089165882
-0.2156930119 -0.1003156006 -0.0003279665640388152 0.0005269281027420169
-0.2103715539 -0.1003156006 -0.00028383297827217673 0.0005175259393376051
-0.2050500959 -0.1003156006 -0.00025999573079743847 0.0005022082729042803
-0.1997286379 -0.1003156006 -0.00023637108976106274 0.00048408287687440923
-0.19440718 -0.1003156006 -0.0002120662235694985 0.00046869263344433625
-0.189085722 -0.1003156006 -0.00018132054505082872 0.00045293331510013824
-0.183764264 -0.1003156006 -0.0001467058125097989 0.00043935449365320884
-0.178442806 -0.1003156006 -0.00011030210574238688 0.000422947456582214
-0.173121348 -0.1003156006 -8.140015581192773e-05 0.00040837733166775047
-0.16779989 -0.1003156006 -5.502358497270612e-05 0.00039414554686396144
-0.1624784321 -0.1003156006 -2.830685478989894e-05 0.00038173827248142025
-0.1571569741 -0.1003156006 -5.677427242207499e-06 0.00037235902794194087
-0.1518355161 -0.1003156006 1.3679236096450354e-05 0.0003672215405246544
-0.1465140581 -0.1003156006 3.3127316330588334e-05 0.00036295693427463677
-0.1411926001 -0.1003156006 5.448597478300941e-05 0.00035656595041177596
-0.1358711421 -0.1003156006 7.794961944508611e-05 0.00034366783692634455
-0.1305496842 -0.1003156006 0.00010136543115577405 0.0003307898132853133
-0.1252282262 -0.1003156006 0.00012505539352963743 0.00031794294194593985
-0.1199067682 -0.1003156006 0.00014837378495081608 0.0003049051318649843
-0.1145853102 -0.1003156006 0.00017122312546570445 0.00029159924141137724
-0.1092638522 -0.1003156006 0.0001940725643163672 0.0002783938469871941
-0.1039423943 -0.1003156006 0.00021722409789988041 0.00026536096901910505
-0.09862093627 -0.1003156006 0.0002402836389612612 0.00025226135663585566
-0.09329947084 -0.1003156006 0.00026362453835086075 0.00023921815886965273
-0.08797801286 -0.1003156006 0.0002869083491629717 0.00022617711872019978
-0.08265655488 -0.1003156006 0.0003107253241103997 0.00021338560490624973
-0.0773350969 -0.1003156006 0.00033466399195873425 0.00020177784254664865
-0.07201363891 -0.1003156006 0.0003586775500383292 0.00019016783964011122
-0.06669218093 -0.1003156006 0.00038281545489382183 0.00017856446754123506
-0.06137072667 -0.1003156006 0.0004060130286129004 0.00016692795156800474
-0.05604926869 -0.1003156006 0.00042985012966331303 0.00015732057845717595
-0.05072781071 -0.1003156006 0.00045351926493509637 0.0001479846160131515
-0.045406349 -0.1003156006 0.000477592044566427 0.0001386653784209964
-0.04008489102 -0.1003156006 0.0005010058735120675 0.00012931791778325816
-0.03476343304 -0.1003156006 0.0005240411344861714 0.0001213167114875272
-0.02944197692 -0.1003156006 0.0005458694280228839 0.00011585202354899843
-0.02412051894 -0.1003156006 0.0005674428236528208 0.00011050367607087056
-0.01879905909 -0.1003156006 0.0005885861059030634 0.00010529190724868851
-0.01347760204 -0.1003156006 0.0006102458049516158 9.992913124511907e-05
-0.00815614406 -0.1003156006 0.0006299598876782554 9.384885035823396e-05
-0.00283468538 -0.1003156006 0.0006479766633096679 8.706962981002082e-05
0.002486772602 -0.1003156006 0.0006647604891614394 8.038449006120267e-05
0.007808230817 -0.1003156006 0.0006815043696595312 7.371609106069324e-05
0.0131296888 -0.1003156006 0.0006992987200792179 6.694621920745749e-05
0.01845114678 -0.1003156006 0.0007167914553776496 5.886503349403268e-05
0.02377260476 -0.1003156006 0.0007332791679391935 4.96065126287204e-05
0.02909406275 -0.1003156006 0.0007488470619921365 4.016730823589745e-05
0.03441552073 -0.1003156006 0.0007643596706648409 3.072664017571078e-05
0.03973697871 -0.1003156006 0.0007806906806181865 2.145193551994382e-05
0.04505843669 -0.1003156006 0.000800016678306179 1.1724713429827105e-05
0.05037989467 -0.1003156006 0.000824063840997238 9.373331098723645e-07
0.05570135266 -0.1003156006 0.0008476318717396854 -1.0137601931133622e-05
0.06102281436 -0.1003156006 0.0008709380196015168 -2.128974405910762e-05
0.06634426862 -0.1003156006 0.0008947899532103978 -3.219891025902004e-05
0.0716657266 -0.1003156006 0.000919152906281538 -4.292489981661647e-05
0.07698718458 -0.1003156006 0.0009500878828201265 -4.998713071451945e-05
0.08230864257 -0.1003156006 0.0009813803486511713 -5.685410247061115e-05
0.08763010055 -0.1003156006 0.0010126497308776483 -6.389059431529984e-05
0.09295155853 -0.1003156006 0.0010440799000562132 -7.07831571798936e-05
0.09827301651 -0.1003156006 0.0010756280983543107 -7.75650169608833e-05
0.1035944745 -0.1003156006 0.0011075631268212597 -8.42915218754956e-05
0.1089159325 -0.1003156006 0.001140467502150348 -9.125385806843244e-05
0.1142373979 -0.1003156006 0.0011733997541935263 -9.821422751549075e-05
0.1195588559 -0.1003156006 0.0012076355774266333 -0.00010440271587259408
0.1248803139 -0.1003156006 0.0012414251078278875 -0.00011084794676082617
0.1302017719 -0.1003156006 0.0012749412223681798 -0.00011750953349084153
0.1355232298 -0.1003156006 0.0013175629731083593 -0.00012369301182445705
0.1408446878 -0.1003156006 0.0013671069922603532 -0.00012889283891440422
0.1461661458 -0.1003156006 0.0014165000761657668 -0.0001326834612711482
0.1514876038 -0.1003156006 0.001465807906119651 -0.00013647577504784356
0.1568090618 -0.1003156006 0.001515073044262053 -0.00014026258510515827
0.1621305197 -0.1003156006 0.0015644322920252952 -0.00014406694052149615
0.1674519777 -0.1003156006 0.0016268078566951851 -0.00013326928743876443
0.1727734357 -0.1003156006 0.0016957888022237691 -0.00011636783072149931
0.1780948937 -0.1003156006 0.0017648094168098924 -9.947780666778165e-05
0.1834163517 -0.1003156006 0.0018338584156882573 -8.257796233708454e-05
0.1887378097 -0.1003156006 0.0019019549715505331 -6.542920883021327e-05
0.1940592676 -0.1003156006 0.0019680009041600963 -4.756376175228624e-05
0.1993807256 -0.1003156006 0.002033453243606499 1.0542440722747546e-06
0.2047021836 -0.1003156006 0.0020986303295718123 5.9548805556818814e-05
0.2100236416 -0.1003156006 0.0021637687904409496 0.00011802315624088634
0.2153450996 -0.1003156006 0.0022257142305061027 0.00017475501596387905
0.2206665576 -0.1003156006 0.002288474677876036 0.0002321807164100957
0.2259880155 -0.1003156006 0.002351355943097397 0.0002895960709369954
0.2313094735 -0.1003156006 0.002383683270599072 0.000375707486647969
0.2366309315 -0.1003156006 0.0024053009204950166 0.0004666369223688566
0.2419523895 -0.1003156006 0.0024261187330572947 0.0005559711504511282
0.2472738475 -0.1003156006 0.00244677135843589 0.0006453253329295636
0.2525953054 -0.1003156006 0.0024662820406326194 0.0007345706909483809
0.2579167783 -0.1003156006 0.0024844690247584895 0.0008214388283555189
0.2632382214 -0.1003156006 0.002457505445289565 0.0009068198664715393
0.2685596943 -0.1003156006 0.0024190588297171986 0.000993164127132751
0.2738811374 -0.1003156006 0.002380039955869884 0.001081246833020085
0.2792026103 -0.1003156006 0.0023415549957456097 0.0011679156623133537
0.2845240533 -0.1003156006 0.0023039248942378627 0.0012500908741577574
0.2898455262 -0.1003156006 0.002266132194895156 0.0013322674863513809
0.2951669693 -0.1003156006 0.002183369560205962 0.0013898302244526241
0.3004884422 -0.1003156006 0.002093832801715909 0.0014429230776403924
0.3058098853 -0.1003156006 0.002009000348966901 0.0014914129829026088
0.3111313581 -0.1003156006 0.0019243257979929436 0.0015399211995881282
0.3164528012 -0.1003156006 0.0018395541166073806 0.0015884237447849625
0.3217742741 -0.1003156006 0.0017540442357482043 0.001635772294390789
0.3270957172 -0.1003156006 0.0016424169457190845 0.0016277007174896163
0.3324171901 -0.1003156006 0.0015309626649439839 0.0016197757883094526
0.3377386332 -0.1003156006 0.0014193474094680314 0.0016118604977489752
0.343060106 -0.1003156006 0.0013079023061653202 0.0016038949073688183
0.3483815491 -0.1003156006 0.001203759820306391 0.0015947289476010715
0.353703022 -0.1003156006 0.0011028024793878865 0.0015661656521538548
0.3590244651 -0.1003156006 0.001007829672365471 0.0014932490743189452
0.364345938 -0.1003156006 0.000912750901288936 0.001420309177063128
0.369667381 -0.1003156006 0.0008243123813574418 0.0013508311951391716
0.3749888539 -0.1003156006 0.000734352744404259 0.0012804354737329063
0.380310297 -0.1003156006 0.0006433952201391744 0.0012097175509457238
0.3856317699 -0.1003156006 0.0005864069835165564 0.00110707311342357
0.390953213 -0.1003156006 0.0005434724551135979 0.0009999744273980534
0.3962746859 -0.1003156006 0.0005009260764100561 0.0008935949585934839
0.4015961289 -0.1003156006 0.0004584071153083031 0.0007873997247507538
0.4069176018 -0.1003156006 0.0004165921683551969 0.0006814359748888988
0.4122390449 -0.1003156006 0.000395972622720177 0.0005775451845627407
0.4175605178 -0.1003156006 0.0004033650677316141 0.0004667034109890013
0.4228819609 -0.1003156006 0.0004108244803146311 0.00035408936633791755
0.4282034338 -0.1003156006 0.0004184918036467225 0.00024146087387031843
0.4335248768 -0.1003156006 0.00042564325142395334 0.0001349947698411533
0.4388463497 -0.1003156006 0.00044257997199708755 3.0949564920604875e-05
0.4441677928 -0.1003156006 0.0004865392181507185 -6.634809430061442e-05
0.4494892657 -0.1003156006 0.0005302095413323488 -0.00016302166161314747
0.4548107088 -0.1003156006 0.0005720468475364759 -0.00025649138179502904
0.4601321816 -0.1003156006 0.000614953141702487 -0.00035168703409252833
0.4654536247 -0.1003156006 0.0006678499562658877 -0.00043897209946685656
0.4707750976 -0.1003156006 0.0007353508943038165 -0.0005129118245090098
0.4760965407 -0.1003156006 0.0008000037614476976 -0.0005846229859790515
0.4814180136 -0.1003156006 0.0008647998687264496 -0.00065632615396942
0.4867394567 -0.1003156006 0.0009297754333315318 -0.0007282094148577228
0.4920609295 -0.1003156006 0.0010047632660421797 -0.0007792780502130296
0.4973823726 -0.1003156006 0.001080598811299495 -0.0008239302892409796
0.5027038455 -0.1003156006 0.0011567208651904223 -0.000868782791136309
0.5080252886 -0.1003156006 0.0012330455778044914 -0.0009136903927118778
0.5133467317 -0.1003156006 0.0013041179488725697 -0.000946705265278869
0.5186682343 -0.1003156006 0.0013764733957904566 -0.0009647849588821606
0.5239896774 -0.1003156006 0.0014487870338918088 -0.0009827774756618018
0.5293111205 -0.1003156006 0.0015203621275956657 -0.001001300011624388
0.5346325636 -0.1003156006 0.0015831255152483987 -0.0010138668209234366
0.5399540663 -0.1003156006 0.0016400020820819157 -0.0010150952595200438
0.5452755094 -0.1003156006 0.0016969722182862412 -0.0010152099590652716
0.5505969524 -0.1003156006 0.0017533192491357478 -0.001017653691647866
0.5559183955 -0.1003156006 0.001796343893735194 -0.001015690685799113
0.5612398982 -0.1003156006 0.001835570988707251 -0.0010079552527646073
0.5665613413 -0.1003156006 0.0018746600577083787 -0.001000826105176207
0.5718827844 -0.1003156006 0.0019075884622531873 -0.000997064950153493
0.5772042274 -0.1003156006 0.001929816741275166 -0.000989163675956843
0.5825257301 -0.1003156006 0.0019516819930876373 -0.0009810289801104111
0.5878471732 -0.1003156006 0.0019689133846122887 -0.000976943996941019
0.5931686163 -0.1003156006 0.0019768428013528733 -0.0009738555508368872
0.5984900594 -0.1003156006 0.0019858040066472703 -0.0009700021658500301
0.6038115621 -0.1003156006 0.001984545695434394 -0.0009713243600151361
0.6091330051 -0.1003156006 0.0019823121026250577 -0.0009752048861342725
0.6144544482 -0.1003156006 0.001971280982631521 -0.0009824385810701223
0.6197758913 -0.1003156006 0.0019573659172162916 -0.000996205805619427
0.625097394 -0.1003156006 0.0019396425219005175 -0.0010147458582347416
0.6304188371 -0.1003156006 0.0019144709984516783 -0.0010414767362780346
0.6357402802 -0.1003156006 0.0018910471716266698 -0.001074401546708837
0.6410617828 -0.1003156006 0.0018624701706725134 -0.0011150143434833768
0.6463832259 -0.1003156006 0.0018314849645564982 -0.0011622106155492725
0.651704669 -0.1003156006 0.001797890066587592 -0.001215221628330984
0.6570261121 -0.1003156006 0.0017658322521270401 -0.0012809646113121783
0.6623476148 -0.1003156006 0.0017315706258545286 -0.001355529079346106
0.6676690578 -0.1003156006 0.001696492245137674 -0.001437822360513542
0.6729905009 -0.1003156006 0.001663728539664514 -0.0015347705788076183
0.678311944 -0.1003156006 0.001634630295732661 -0.0016393388082510266
0.6836334467 -0.1003156006 0.0016066692930823264 -0.0017537295075370199
0.6889548898 -0.1003156006 0.001580179484065129 -0.001882721500770842
0.6942763329 -0.1003156006 0.0015604204785486723 -0.0020211059029563443
0.6995977759 -0.1003156006 0.0015448369463217906 -0.002170082344976301
0.7049192786 -0.1003156006 0.0015349129679905278 -0.0023309813137781118
0.7102407217 -0.1003156006 0.0015310482968710886 -0.002505658368504331
0.7155621648 -0.1003156006 0.0015372823992192194 -0.002693686960585871
0.7208836079 -0.1003156006 0.0015535094648252655 -0.002892161192664029
0.7262051105 -0.1003156006 0.0015788475005108612 -0.003102941836958258
0.7315265536 -0.1003156006 0.001617217432180298 -0.003328776523856486
0.7368479967 -0.1003156006 0.001672466612768027 -0.003571974645071919
0.7421694398 -0.1003156006 0.0017403643288421658 -0.0038291873008106567
0.7474909425 -0.1003156006 0.001825835133881732 -0.004090233961316893
0.7528123856 -0.1003156006 0.001934043558438848 -0.004372647966323822
0.7581338286 -0.1003156006 0.0020637816090312835 -0.00467067898262706
-0.3008363545 -0.09699654579 -0.0005958847727175722 0.0009634775202177798
-0.2955148816 -0.09699654579 -0.0005916706416573535 0.0009415546541626579
-0.2901934385 -0.09699654579 -0.0005855311095576551 0.000920845811552683
-0.2848719656 -0.09699654579 -0.0005777625436862241 0.0008997470998700897
-0.2795505226 -0.09699654579 -0.0005744288717518318 0.0008743596981511484
-0.2742290497 -0.09699654579 -0.0005629446433882984 0.0008473054820320437
-0.2689076066 -0.09699654579 -0.0005472736104235349 0.0008216529218380329
-0.2635861337 -0.09699654579 -0.0005351078738838644 0.000792374356499788
-0.2582646906 -0.09699654579 -0.0005371496892581181 0.0007585778195332793
-0.2529432178 -0.09699654579 -0.0005378120351366274 0.0007188900363668018
-0.2476217598 -0.09699654579 -0.0005478444370248036 0.0006779078974217656
-0.2423003018 -0.09699654579 -0.0005461922220277233 0.0006372749961249929
-0.2369788438 -0.09699654579 -0.0005133966405568039 0.0006013965671399016
-0.2316573858 -0.09699654579 -0.0004791138868963016 0.0005697094432489248
-0.2263359278 -0.09699654579 -0.00044081131432854447 0.0005372573991760254
-0.2210144699 -0.09699654579 -0.00040059352761792535 0.0005207901983645302
-0.2156930119 -0.09699654579 -0.0003561363243323067 0.0005113338806623649
-0.2103715539 -0.09699654579 -0.0003077538379970805 0.0004996913772995737
-0.2050500959 -0.09699654579 -0.0002786274278391943 0.0004842001541538647
-0.1997286379 -0.09699654579 -0.0002544038608702429 0.00046893189085393995
-0.19440718 -0.09699654579 -0.0002272540076165747 0.0004518969334975097
-0.189085722 -0.09699654579 -0.0001919665339260967 0.0004319090198960092
-0.183764264 -0.09699654579 -0.00015403192808688857 0.0004130810060466281
-0.178442806 -0.09699654579 -0.00011346904530095557 0.0003951930156466915
-0.173121348 -0.09699654579 -8.257479622882732e-05 0.00038092767120658026
-0.16779989 -0.09699654579 -5.411239148335253e-05 0.00036940150002538096
-0.1624784321 -0.09699654579 -2.1244729308669705e-05 0.0003591066854927515
-0.1571569741 -0.09699654579 4.941802854245732e-06 0.0003546984792856747
-0.1518355161 -0.09699654579 2.7234767258310783e-05 0.00035074870953609124
-0.1465140581 -0.09699654579 4.951748858700077e-05 0.00034719192658220696
-0.1411926001 -0.09699654579 7.217507845378804e-05 0.00034116530919304795
-0.1358711421 -0.09699654579 9.595846638257722e-05 0.0003283510455009329
-0.1305496842 -0.09699654579 0.00012013913150468635 0.0003154646839444761
-0.1252282262 -0.09699654579 0.00014639806142507865 0.000302754028400816
-0.1199067682 -0.09699654579 0.0001720102327325302 0.00028966758669864883
-0.1145853102 -0.09699654579 0.00019740710913969617 0.0002763642524525079
-0.1092638522 -0.09699654579 0.00022234952891835643 0.0002632084282852124
-0.1039423943 -0.09699654579 0.00024697413430767193 0.00025045989046811745
-0.09862093627 -0.09699654579 0.00027143236190202235 0.00023751884173701119
-0.09329947084 -0.09699654579 0.0002954409010990913 0.00022463445298080375
-0.08797801286 -0.09699654579 0.0003192722351766801 0.00021182622279496726
-0.08265655488 -0.09699654579 0.00034350554398239827 0.00019911395229861394
-0.0773350969 -0.09699654579 0.00036665578697020994 0.0001874512571484519
-0.07201363891 -0.09699654579 0.00038932091737534037 0.00017580432158448474
-0.06669218093 -0.09699654579 0.0004118978647673851 0.00016419365910700712
-0.06137072667 -0.09699654579 0.00043286717087583104 0.0001525476189210981
-0.05604926869 -0.09699654579 0.00045365701084437623 0.0001430373941414064
-0.05072781071 -0.09699654579 0.00047539088986724295 0.0001337483997776199
-0.045406349 -0.09699654579 0.0004971225287868511 0.0001244561549993484
-0.04008489102 -0.09699654579 0.0005181897516917062 0.00011528181009129108
-0.03476343304 -0.09699654579 0.0005381027975071264 0.00010765658296385651
-0.02944197692 -0.09699654579 0.0005568648675835439 0.00010288727602416642
-0.02412051894 -0.09699654579 0.0005759615676002196 9.805811397681902e-05
-0.01879905909 -0.09699654579 0.0005946617291263994 9.32640397404434e-05
-0.01347760204 -0.09699654579 0.0006130607671516897 8.858731442782483e-05
-0.00815614406 -0.09699654579 0.0006294800813418731 8.293348481261131e-05
-0.00283468538 -0.09699654579 0.0006442802825045471 7.638390994018154e-05
0.002486772602 -0.09699654579 0.0006585399976586607 6.986814396334655e-05
0.007808230817 -0.09699654579 0.0006726544259645312 6.336195144526842e-05
0.0131296888 -0.09699654579 0.0006871982007934822 5.6829728537027866e-05
0.01845114678 -0.09699654579 0.0007014294440249589 4.854876931599054e-05
0.02377260476 -0.09699654579 0.0007153191067528945 3.885823500577637e-05
0.02909406275 -0.09699654579 0.0007281719744819219 2.902447878139394e-05
0.03441552073 -0.09699654579 0.0007410003598627226 1.9156653527395633e-05
0.03973697871 -0.09699654579 0.0007548796217950808 9.470623946958925e-06
0.04505843669 -0.09699654579 0.0007718558289082213 -9.595677830770633e-07
0.05037989467 -0.09699654579 0.000795047597333628 -1.2705173646582354e-05
0.05570135266 -0.09699654579 0.0008180496937841962 -2.4551282371569363e-05
0.06102281436 -0.09699654579 0.0008405010047787815 -3.6707405222349714e-05
0.06634426862 -0.09699654579 0.0008639054795377936 -4.83780617197672e-05
0.0716657266 -0.09699654579 0.0008871725402672298 -6.004820569219639e-05
0.07698718458 -0.09699654579 0.0009184862280464719 -6.731469524841696e-05
0.08230864257 -0.09699654579 0.0009501971678984499 -7.441932276711285e-05
0.08763010055 -0.09699654579 0.000982212590452691 -8.146666326872283e-05
0.09295155853 -0.09699654579 0.0010139860178140832 -8.865780761320282e-05
0.09827301651 -0.09699654579 0.0010459448828897223 -9.576347220030982e-05
0.1035944745 -0.09699654579 0.001077960321307784 -0.00010301269141032748
0.1089159325 -0.09699654579 0.0011106861537415619 -0.00011087721703067101
0.1142373979 -0.09699654579 0.0011442555275134531 -0.00011853970413066957
0.1195588559 -0.09699654579 0.0011781820572203288 -0.00012616486325166444
0.1248803139 -0.09699654579 0.0012121539859060047 -0.0001337902153200215
0.1302017719 -0.09699654579 0.0012456499681114167 -0.00014140448141766528
0.1355232298 -0.09699654579 0.0012905320049280402 -0.00015015149028965537
0.1408446878 -0.09699654579 0.0013424816639369037 -0.00015740341261007702
0.1461661458 -0.09699654579 0.0013944405163272046 -0.00016466458639576598
0.1514876038 -0.09699654579 0.0014441977483121047 -0.00017166215911450984
0.1568090618 -0.09699654579 0.001494235103372565 -0.00017865293617583
0.1621305197 -0.09699654579 0.0015438784197168306 -0.00018447308149384135
0.1674519777 -0.09699654579 0.001611546922019223 -0.00017424506253560046
0.1727734357 -0.09699654579 0.0016860955294472663 -0.00015840533833950246
0.1780948937 -0.09699654579 0.0017619973719855252 -0.0001431330406033179
0.1834163517 -0.09699654579 0.0018371899843127812 -0.00012771196926113107
0.1887378097 -0.09699654579 0.0019100879421364804 -0.00011100756159708926
0.1940592676 -0.09699654579 0.0019828690516315423 -9.429975626887303e-05
0.1993807256 -0.09699654579 0.0020566101265366336 -4.184038488350772e-05
0.2047021836 -0.09699654579 0.002130219548261603 2.017417267411394e-05
0.2100236416 -0.09699654579 0.0022005473561915877 8.030798256731927e-05
0.2153450996 -0.09699654579 0.0022702790271135432 0.0001402740721324839
0.2206665576 -0.09699654579 0.002340032072220993 0.00020024275806806717
0.2259880155 -0.09699654579 0.0024098499167220155 0.00026025211849980924
0.2313094735 -0.09699654579 0.002444663584907859 0.000350707406382612
0.2366309315 -0.09699654579 0.002468695155367123 0.00044726715662492424
0.2419523895 -0.09699654579 0.002492710315394136 0.0005438308491989833
0.2472738475 -0.09699654579 0.0025166594358643213 0.0006403999593695818
0.2525953054 -0.09699654579 0.0025395039955638794 0.0007342349543651718
0.2579167783 -0.09699654579 0.0025612693763825767 0.0008256314667929158
0.2632382214 -0.09699654579 0.0025329359172837997 0.0009192545665199312
0.2685596943 -0.09699654579 0.002494119503764692 0.0010132829434933257
0.2738811374 -0.09699654579 0.0024561408441552673 0.0011048029413954046
0.2792026103 -0.09699654579 0.0024188276155489782 0.0011928071880468816
0.2845240533 -0.09699654579 0.0023814876519152525 0.0012817077900028964
0.2898455262 -0.09699654579 0.0023435678882164296 0.0013719114434276331
0.2951669693 -0.09699654579 0.0022559520891839574 0.0014334528564360499
0.3004884422 -0.09699654579 0.0021654204962398183 0.001488792089861489
0.3058098853 -0.09699654579 0.002073306487856338 0.001544440304237742
0.3111313581 -0.09699654579 0.0019813473379631553 0.001600106470711159
0.3164528012 -0.09699654579 0.0018908693041965183 0.0016540386631771732
0.3217742741 -0.09699654579 0.001802109606264408 0.0017012262213592744
0.3270957172 -0.09699654579 0.0016820630314330306 0.0016939924006205709
0.3324171901 -0.09699654579 0.0015617686672029778 0.0016867710135380174
0.3377386332 -0.09699654579 0.0014445119090235887 0.0016789242251544349
0.343060106 -0.09699654579 0.0013300553333714718 0.0016705425773179908
0.3483815491 -0.09699654579 0.0012150717912592617 0.001662410585801041
0.353703022 -0.09699654579 0.0011032697614849149 0.0016300057821262328
0.3590244651 -0.09699654579 0.001000477156789489 0.001552011048079506
0.364345938 -0.09699654579 0.0009023286703155665 0.0014765948363006443
0.369667381 -0.09699654579 0.0008041954714628962 0.001401377599000903
0.3749888539 -0.09699654579 0.0007055611806636084 0.0013267185539075634
0.380310297 -0.09699654579 0.0006106949435519121 0.001253854134653351
0.3856317699 -0.09699654579 0.0005553852356322401 0.0011497279553759608
0.390953213 -0.09699654579 0.0005088226225011118 0.0010355283963212228
0.3962746859 -0.09699654579 0.00046133587271383284 0.0009193149301558736
0.4015961289 -0.09699654579 0.00041584098638932813 0.0008069690864284892
0.4069176018 -0.09699654579 0.00037166701416082996 0.0006974958126800519
0.4122390449 -0.09699654579 0.00034981781194985294 0.0005839194278314081
0.4175605178 -0.09699654579 0.0003572402887067033 0.0004649642333375427
0.4228819609 -0.09699654579 0.0003644230914275127 0.0003504622238537639
0.4282034338 -0.09699654579 0.00037148540654219554 0.00023777191470435367
0.4335248768 -0.09699654579 0.00037834882571030436 0.00012471132722505308
0.4388463497 -0.09699654579 0.0003975939356430346 1.208667246657266e-05
0.4441677928 -0.09699654579 0.00044271934025256034 -8.820411777919049e-05
0.4494892657 -0.09699654579 0.00048756042116702834 -0.00018819685196199887
0.4548107088 -0.09699654579 0.0005329443544469261 -0.0002882257988537464
0.4601321816 -0.09699654579 0.0005777969649238305 -0.0003876263472857187
0.4654536247 -0.09699654579 0.0006314520515986883 -0.00047442275085882147
0.4707750976 -0.09699654579 0.0007011413985882603 -0.0005499688966898875
0.4760965407 -0.09699654579 0.0007723431091797861 -0.0006270289971525691
0.4814180136 -0.09699654579 0.0008421169213297619 -0.0007026649338716466
0.4867394567 -0.09699654579 0.0009093276723167563 -0.0007763871850518309
0.4920609295 -0.09699654579 0.000987184211702963 -0.0008271951384938503
0.4973823726 -0.09699654579 0.001067937540564287 -0.0008721658462103647
0.5027038455 -0.09699654579 0.0011465786631893657 -0.0009169464253345255
0.5080252886 -0.09699654579 0.001225651468802398 -0.0009617705906766632
0.5133467317 -0.09699654579 0.0013031240828766343 -0.000993074981411773
0.5186682343 -0.09699654579 0.001378157549390565 -0.0010091512911448112
0.5239896774 -0.09699654579 0.0014498558269230787 -0.001026906718603112
0.5293111205 -0.09699654579 0.0015233904862065133 -0.0010438194569116982
0.5346325636 -0.09699654579 0.00159130683263438 -0.0010513855300703498
0.5399540663 -0.09699654579 0.0016490081313720862 -0.0010501796161345237
0.5452755094 -0.09699654579 0.0017058502541826093 -0.0010502477655241575
0.5505969524 -0.09699654579 0.0017636308765275363 -0.0010489830049210565
0.5559183955 -0.09699654579 0.0018081632120413923 -0.001040243733156469
0.5612398982 -0.09699654579 0.0018472742834372443 -0.0010324472349234324
0.5665613413 -0.09699654579 0.0018866081394937923 -0.0010244551516142245
0.5718827844 -0.09699654579 0.0019191147146852565 -0.0010125289841865454
0.5772042274 -0.09699654579 0.001941654719000319 -0.0010031029908121746
0.5825257301 -0.09699654579 0.00196418207494582 -0.0009936243785922205
0.5878471732 -0.09699654579 0.0019793637973949283 -0.0009826974999918086
0.5931686163 -0.09699654579 0.0019865207854518237 -0.0009769294490310368
0.5984900594 -0.09699654579 0.0019916654376402076 -0.0009693754364344984
0.6038115621 -0.09699654579 0.0019890102021372104 -0.0009682713235133203
0.6091330051 -0.09699654579 0.001979505668147751 -0.0009687643981946966
0.6144544482 -0.09699654579 0.001969373753983088 -0.0009738322216429019
0.6197758913 -0.09699654579 0.0019484454076093187 -0.0009869546384379476
0.625097394 -0.09699654579 0.0019272782639149035 -0.0010025382686034395
0.6304188371 -0.09699654579 0.0019008845371185801 -0.0010276049305012055
0.6357402802 -0.09699654579 0.0018690488707889716 -0.0010552478337572289
0.6410617828 -0.09699654579 0.0018379717365523283 -0.0010926329726468668
0.6463832259 -0.09699654579 0.0018003302812552632 -0.00113922001737723
0.651704669 -0.09699654579 0.0017608833272878468 -0.0011927890056126936
0.6570261121 -0.09699654579 0.0017219658723588128 -0.00126011275997449
0.6623476148 -0.09699654579 0.0016827281226824897 -0.0013343648532313838
0.6676690578 -0.09699654579 0.001642213832716899 -0.001418186529887067
0.6729905009 -0.09699654579 0.0016034941998875388 -0.0015132065369296546
0.678311944 -0.09699654579 0.0015643258338611623 -0.001618511547997189
0.6836334467 -0.09699654579 0.001528376072758382 -0.001733470015425189
0.6889548898 -0.09699654579 0.0014965214567250848 -0.0018626331711122026
0.6942763329 -0.09699654579 0.001468808903316471 -0.002003874658940152
0.6995977759 -0.09699654579 0.0014437076922254983 -0.0021573826649395563
0.7049192786 -0.09699654579 0.0014257798663954919 -0.0023220049271294187
0.7102407217 -0.09699654579 0.0014152663871528353 -0.0025003133004744995
0.7155621648 -0.09699654579 0.0014145387322271716 -0.002694985530880151
0.7208836079 -0.09699654579 0.00142037735733663 -0.002903198329591007
0.7262051105 -0.09699654579 0.0014373025574964007 -0.003124392970844714
0.7315265536 -0.09699654579 0.0014671917586169228 -0.0033573893416203966
0.7368479967 -0.09699654579 0.0015093584398190025 -0.0036066914005387918
0.7421694398 -0.09699654579 0.0015703480170555356 -0.003872339338516678
0.7474909425 -0.09699654579 0.001646034780900968 -0.004151648672278416
0.7528123856 -0.09699654579 0.0017459022596872328 -0.00444635157191023
0.7581338286 -0.09699654579 0.0018687237712923079 -0.004755373963860676
-0.3008363545 -0.09367749095 -0.0006046396464167882 0.0009641743183302332
-0.2955148816 -0.09367749095 -0.0006031692454810148 0.0009442755584255952
-0.2901934385 -0.09367749095 -0.0005987679194063801 0.0009230815627138276
-0.2848719656 -0.09367749095 -0.00059885843706639 0.0008972996524242996
-0.2795505226 -0.09367749095 -0.0005940640450756547 0.0008724273926546307
-0.2742290497 -0.09367749095 -0.0005855006563533233 0.0008433204792779254
-0.2689076066 -0.09367749095 -0.0005725819303883221 0.0008160405662259312
-0.2635861337 -0.09367749095 -0.0005579240027032152 0.0007882303801505627
-0.2582646906 -0.09367749095 -0.0005537765266587851 0.0007528987659109643
-0.2529432178 -0.09367749095 -0.0005549060113777168 0.0007114714607174085
-0.2476217598 -0.09367749095 -0.0005619096941271051 0.0006685361708306351
-0.2423003018 -0.09367749095 -0.0005806585713322321 0.0006205855533792686
-0.2369788438 -0.09367749095 -0.0005479945347763699 0.000585054612120913