VARIABLES = X,Y,phix,phiy
ZONE I=200,J=200,F=POINT 
-0.3008363545 -0.1003156006 0.002308669764430217 -0.002116791132647653
-0.2955148816 -0.1003156006 0.0023799226046666046 -0.002144831492309634
-0.2901934385 -0.1003156006 0.002448150047484077 -0.0021631125635093356
-0.2848719656 -0.1003156006 0.0025189368741469946 -0.0021803851428491266
-0.2795505226 -0.1003156006 0.0025974008012922705 -0.002191456257110605
-0.2742290497 -0.1003156006 0.0026818570740319136 -0.002194631909275235
-0.2689076066 -0.1003156006 0.002772183535719562 -0.002195182237757372
-0.2635861337 -0.1003156006 0.0028517704200044557 -0.0021825255303659094
-0.2582646906 -0.1003156006 0.002932602183712976 -0.0021594286113103705
-0.2529432178 -0.1003156006 0.003015913356443193 -0.0021312445561546918
-0.2476217598 -0.1003156006 0.003102471212449536 -0.0020970834329637126
-0.2423003018 -0.1003156006 0.003177619529214125 -0.002052800310223469
-0.2369788438 -0.1003156006 0.0032446754972779916 -0.0020013946519985212
-0.2316573858 -0.1003156006 0.003314250700224403 -0.0019445350864894962
-0.2263359278 -0.1003156006 0.00337999422407061 -0.0018813192148376756
-0.2210144699 -0.1003156006 0.0034267933404815635 -0.0018171813675060186
-0.2156930119 -0.1003156006 0.003473743827625289 -0.0017499443593477168
-0.2103715539 -0.1003156006 0.003518876918699742 -0.0016773619869236203
-0.2050500959 -0.1003156006 0.003545615114973026 -0.0016085219630987359
-0.1997286379 -0.1003156006 0.003571770027162239 -0.001538221298171921
-0.19440718 -0.1003156006 0.0035948388357464507 -0.0014636366977496085
-0.189085722 -0.1003156006 0.0036062515453401094 -0.001397132716662691
-0.183764264 -0.1003156006 0.003613556115299132 -0.0013294325255619982
-0.178442806 -0.1003156006 0.0036208600805659776 -0.0012609099751493638
-0.173121348 -0.1003156006 0.0036181576056010865 -0.0011984116823986883
-0.16779989 -0.1003156006 0.0036141221834745502 -0.001139289180439426
-0.1624784321 -0.1003156006 0.003607800517557904 -0.0010784464847133051
-0.1571569741 -0.1003156006 0.0035977396569609353 -0.0010239312740479873
-0.1518355161 -0.1003156006 0.003583928830554605 -0.0009729292622543788
-0.1465140581 -0.1003156006 0.0035697033070795736 -0.0009216220132343256
-0.1411926001 -0.1003156006 0.0035535707868597226 -0.0008728513043263032
-0.1358711421 -0.1003156006 0.003535397658603832 -0.0008307864608037975
-0.1305496842 -0.1003156006 0.003517224254277652 -0.0007887216460044561
-0.1252282262 -0.1003156006 0.003497597273655081 -0.0007464190433200643
-0.1199067682 -0.1003156006 0.003476723824714095 -0.0007105627198221723
-0.1145853102 -0.1003156006 0.003455562111598489 -0.0006766886032866736
-0.1092638522 -0.1003156006 0.003433575953405386 -0.0006427582365771481
-0.1039423943 -0.1003156006 0.0034118601062540594 -0.0006089738731630481
-0.09862093627 -0.1003156006 0.0033899519581662633 -0.0005820940254335589
-0.09329947084 -0.1003156006 0.003367382968694252 -0.0005551845514370693
-0.08797801286 -0.1003156006 0.0033448142732130943 -0.0005282751116110279
-0.08265655488 -0.1003156006 0.003321990570557414 -0.0005015979402955969
-0.0773350969 -0.1003156006 0.0032998327198378043 -0.0004805351984384866
-0.07201363891 -0.1003156006 0.003277757310704897 -0.00045940422819123295
-0.06669218093 -0.1003156006 0.0032556826496691095 -0.00043827326400090884
-0.06137072667 -0.1003156006 0.0032330863199974903 -0.000417263836646782
-0.05604926869 -0.1003156006 0.003211291643959286 -0.00040001289073620554
-0.05072781071 -0.1003156006 0.0031898585353561082 -0.00038373337054695004
-0.045406349 -0.1003156006 0.003168613249897836 -0.00036737862282765313
-0.04008489102 -0.1003156006 0.0031470196205639262 -0.0003511090921247331
-0.03476343304 -0.1003156006 0.003125739882037324 -0.0003359959301235551
-0.02944197692 -0.1003156006 0.0031054900931236215 -0.00032355104075923035
-0.02412051894 -0.1003156006 0.003085147731468927 -0.00031114359298156
-0.01879905909 -0.1003156006 0.00306467484737348 -0.00029879445201287186
-0.01347760204 -0.1003156006 0.003044343846502007 -0.0002863754711299702
-0.00815614406 -0.1003156006 0.003024699577025673 -0.0002756530785013816
-0.00283468538 -0.1003156006 0.003005755616534111 -0.00026629582019514986
0.002486772602 -0.1003156006 0.0029865908309752317 -0.00025703701983750566
0.007808230817 -0.1003156006 0.002967421590412283 -0.00024778502336482585
0.0131296888 -0.1003156006 0.0029484394579949893 -0.00023844470871180987
0.01845114678 -0.1003156006 0.0029301250269269004 -0.00023045821933438877
0.02377260476 -0.1003156006 0.002912413685277551 -0.0002235240410005884
0.02909406275 -0.1003156006 0.0028945735230559697 -0.00021666647113884017
0.03441552073 -0.1003156006 0.0028767339136428535 -0.00020980890225438833
0.03973697871 -0.1003156006 0.002859005998187903 -0.00020288573585637275
0.04505843669 -0.1003156006 0.0028416425958757035 -0.0001966730461182933
0.05037989467 -0.1003156006 0.0028250606328385714 -0.00019182717380089194
0.05570135266 -0.1003156006 0.0028083741232861276 -0.00018701825635465897
0.06102281436 -0.1003156006 0.0027916634534917396 -0.00018224095219174406
0.06634426862 -0.1003156006 0.00277504536179734 -0.000177398608380351
0.0716657266 -0.1003156006 0.002758485057938716 -0.00017253762901326235
0.07698718458 -0.1003156006 0.0027429839577886254 -0.00016938700810138066
0.08230864257 -0.1003156006 0.002727630911495906 -0.0001663734853145945
0.08763010055 -0.1003156006 0.002712212556543035 -0.00016338336646381612
0.09295155853 -0.1003156006 0.0026968551471184417 -0.000160351102103182
0.09827301651 -0.1003156006 0.002681536236063035 -0.00015730791647932502
0.1035944745 -0.1003156006 0.002666578513889249 -0.00015468699566573876
0.1089159325 -0.1003156006 0.0026525413635344604 -0.00015294516215614288
0.1142373979 -0.1003156006 0.0026385046201135272 -0.00015120328081800154
0.1195588559 -0.1003156006 0.0026245453035732523 -0.0001493572350199035
0.1248803139 -0.1003156006 0.0026105572319410236 -0.00014753235110026065
0.1302017719 -0.1003156006 0.002596551995670902 -0.00014575518947280479
0.1355232298 -0.1003156006 0.002583036869301741 -0.0001445157840882638
0.1408446878 -0.1003156006 0.0025699877917143127 -0.0001436352229705075
0.1461661458 -0.1003156006 0.00255699426659341 -0.0001427320808285983
0.1514876038 -0.1003156006 0.0025440002659023664 -0.00014182892942737023
0.1568090618 -0.1003156006 0.0025310063415505536 -0.00014092575498169275
0.1621305197 -0.1003156006 0.0025179998582473854 -0.00014002126722914752
0.1674519777 -0.1003156006 0.002505548302407516 -0.00013974473872779166
0.1727734357 -0.1003156006 0.0024933472671950104 -0.00013983682192719846
0.1780948937 -0.1003156006 0.0024811448348248887 -0.00013992888275913203
0.1834163517 -0.1003156006 0.002468942912559089 -0.0001400209764385637
0.1887378097 -0.1003156006 0.002456773873394799 -0.0001400581088961407
0.1940592676 -0.1003156006 0.0024446623640840335 -0.0001400682970559594
0.1993807256 -0.1003156006 0.0024332413649332273 -0.00014070946272573757
0.2047021836 -0.1003156006 0.002422089004345075 -0.00014155597189720014
0.2100236416 -0.1003156006 0.0024109342948173905 -0.0001423715110994736
0.2153450996 -0.1003156006 0.00239983100442655 -0.00014311910786949742
0.2206665576 -0.1003156006 0.0023887091553717135 -0.00014391281153973025
0.2259880155 -0.1003156006 0.002377588608540943 -0.0001447085477603728
0.2313094735 -0.1003156006 0.0023670671817548204 -0.00014584770505691975
0.2366309315 -0.1003156006 0.002356784265407271 -0.00014702381666671332
0.2419523895 -0.1003156006 0.002346518043091884 -0.00014820089907509773
0.2472738475 -0.1003156006 0.002336238332167744 -0.0001493784962560015
0.2525953054 -0.1003156006 0.0023259741456021815 -0.00015055147978122987
0.2579167783 -0.1003156006 0.002315727226295888 -0.00015167270808745688
0.2632382214 -0.1003156006 0.002305959152388825 -0.00015319138209142518
0.2685596943 -0.1003156006 0.0022963289018564114 -0.00015481735840541076
0.2738811374 -0.1003156006 0.002286676036555325 -0.0001564629922463366
0.2792026103 -0.1003156006 0.002277040126436233 -0.00015808444671190088
0.2845240533 -0.1003156006 0.0022674455999252587 -0.00015966759839152999
0.2898455262 -0.1003156006 0.0022578510485013205 -0.0001612507754979469
0.2951669693 -0.1003156006 0.002248857766505048 -0.00016325349732779334
0.3004884422 -0.1003156006 0.002239983441808672 -0.00016530608053682828
0.3058098853 -0.1003156006 0.002231144566303224 -0.00016729285865210174
0.3111313581 -0.1003156006 0.0022223082443923094 -0.0001692796489063658
0.3164528012 -0.1003156006 0.0022134704773759603 -0.00017126642317581445
0.3217742741 -0.1003156006 0.0022046348596934558 -0.00017324127135898737
0.3270957172 -0.1003156006 0.0021966101945890613 -0.00017546987982545661
0.3324171901 -0.1003156006 0.0021885723506675676 -0.00017770882457383082
0.3377386332 -0.1003156006 0.002180535568519933 -0.00017994776644425143
0.343060106 -0.1003156006 0.002172501346601215 -0.0001821794342594616
0.3483815491 -0.1003156006 0.0021644965639741024 -0.00018432633900524584
0.353703022 -0.1003156006 0.0021567431879556034 -0.0001865035795765058
0.3590244651 -0.1003156006 0.002149585667398022 -0.00018878822762377785
0.364345938 -0.1003156006 0.0021424291250847142 -0.00019107085269153367
0.369667381 -0.1003156006 0.0021352749740594914 -0.00019325264157761784
0.3749888539 -0.1003156006 0.002128125369609689 -0.0001954565845931199
0.380310297 -0.1003156006 0.002120965857995208 -0.00019767779614023785
0.3856317699 -0.1003156006 0.002114448791947604 -0.0001997607463329254
0.390953213 -0.1003156006 0.0021081097439589686 -0.00020172492935443263
0.3962746859 -0.1003156006 0.0021017585832879197 -0.00020367448458924093
0.4015961289 -0.1003156006 0.0020954040827946283 -0.00020562325672927024
0.4069176018 -0.1003156006 0.0020890493186818005 -0.00020757704972112324
0.4122390449 -0.1003156006 0.0020829131924371366 -0.00020931093574168424
0.4175605178 -0.1003156006 0.0020771842056243207 -0.00021089215101932686
0.4228819609 -0.1003156006 0.0020714496212605998 -0.00021248793855287534
0.4282034338 -0.1003156006 0.002065731253659465 -0.0002140896325094092
0.4335248768 -0.1003156006 0.002059948180583387 -0.000215601250623688
0.4388463497 -0.1003156006 0.0020543397103281636 -0.00021701548886761383
0.4441677928 -0.1003156006 0.0020491749432367612 -0.00021822255671265274
0.4494892657 -0.1003156006 0.0020440289842864378 -0.00021942966861839095
0.4548107088 -0.1003156006 0.0020388500104584952 -0.0002205663597090213
0.4601321816 -0.1003156006 0.002033661611243169 -0.00022172626853555493
0.4654536247 -0.1003156006 0.0020287939526207653 -0.00022270619623028604
0.4707750976 -0.1003156006 0.002024407037967421 -0.00022341804948645266
0.4760965407 -0.1003156006 0.0020199235080704094 -0.00022401827827153787
0.4814180136 -0.1003156006 0.002015439516598666 -0.00022461828833995805
0.4867394567 -0.1003156006 0.002010963772777715 -0.0002252294821658056
0.4920609295 -0.1003156006 0.002007284232963152 -0.00022528480775364204
0.4973823726 -0.1003156006 0.0020036456895741617 -0.0002251198301377764
0.5027038455 -0.1003156006 0.001999993057703741 -0.000224966928111995
0.5080252886 -0.1003156006 0.0019963588219715873 -0.00022482092632992326
0.5133467317 -0.1003156006 0.00199296989020779 -0.00022405188592272446
0.5186682343 -0.1003156006 0.0019902522195324344 -0.00022282777177500665
0.5239896774 -0.1003156006 0.0019874776090467294 -0.0002215879795695334
0.5293111205 -0.1003156006 0.001984695396157274 -0.00022033201371747424
0.5346325636 -0.1003156006 0.001982002859005425 -0.00021830261265164458
0.5399540663 -0.1003156006 0.0019800151937556477 -0.00021559788232254835
0.5452755094 -0.1003156006 0.001978072587738941 -0.00021291047430961257
0.5505969524 -0.1003156006 0.0019759523606477066 -0.00021016424587236252
0.5559183955 -0.1003156006 0.001974073237649507 -0.00020601915373858728
0.5612398982 -0.1003156006 0.001972891614427255 -0.00020152633751523982
0.5665613413 -0.1003156006 0.0019716235345465373 -0.00019702983803618126
0.5718827844 -0.1003156006 0.001969989948856343 -0.00019161432350025848
0.5772042274 -0.1003156006 0.0019691789787337544 -0.0001849851012484585
0.5825257301 -0.1003156006 0.0019683511985401575 -0.000178345146764986
0.5878471732 -0.1003156006 0.001967348780309769 -0.00017071529229092654
0.5931686163 -0.1003156006 0.00196659122766903 -0.0001617262662839491
0.5984900594 -0.1003156006 0.001966031173429776 -0.00015298434613289456
0.6038115621 -0.1003156006 0.0019656321614051806 -0.00014209304293824924
0.6091330051 -0.1003156006 0.001964930469241589 -0.000130776800559353
0.6144544482 -0.1003156006 0.0019645866859554577 -0.00011796488465538738
0.6197758913 -0.1003156006 0.0019639179359257604 -0.00010374109255927656
0.625097394 -0.1003156006 0.0019628961460599406 -8.849264802417408e-05
0.6304188371 -0.1003156006 0.00196187797219878 -7.089544375945573e-05
0.6357402802 -0.1003156006 0.001959915909244605 -5.237689566205735e-05
0.6410617828 -0.1003156006 0.001957806148046055 -3.2154644141932966e-05
0.6463832259 -0.1003156006 0.0019552979424275973 -9.950312873918989e-06
0.651704669 -0.1003156006 0.00195235312074315 1.3585692192401083e-05
0.6570261121 -0.1003156006 0.0019474854372866428 3.970601011176518e-05
0.6623476148 -0.1003156006 0.0019415960862363276 6.776914223812828e-05
0.6676690578 -0.1003156006 0.0019349810413775551 9.793824493492694e-05
0.6729905009 -0.1003156006 0.0019255300318292796 0.00013118850403011186
0.678311944 -0.1003156006 0.001914132225421562 0.00016595591661898906
0.6836334467 -0.1003156006 0.0019009719557019772 0.00020310031020739507
0.6889548898 -0.1003156006 0.0018846269254347084 0.0002430168273930511
0.6942763329 -0.1003156006 0.0018649131899401666 0.0002852239075721669
0.6995977759 -0.1003156006 0.0018421274459355286 0.00032944497512738853
0.7049192786 -0.1003156006 0.0018155419037454623 0.00037563655946197083
0.7102407217 -0.1003156006 0.001784053718363664 0.00042364516784365423
0.7155621648 -0.1003156006 0.0017471837795433585 0.0004734367124028045
0.7208836079 -0.1003156006 0.0017050392595919304 0.0005237092859179192
0.7262051105 -0.1003156006 0.0016572529852075118 0.0005745075818804278
0.7315265536 -0.1003156006 0.0016032317167247285 0.0006256058768101159
0.7368479967 -0.1003156006 0.0015400242264525918 0.0006759289570291378
0.7421694398 -0.1003156006 0.0014705440380621943 0.0007258279332223707
0.7474909425 -0.1003156006 0.0013959098105139124 0.0007715808080245907
0.7528123856 -0.1003156006 0.0013124876985826754 0.0008146437791618389
0.7581338286 -0.1003156006 0.0012210059711961934 0.0008539000942168856
-0.3008363545 -0.09699654579 0.0022871820802493467 -0.002154485038136652
-0.2955148816 -0.09699654579 0.0023602800973064582 -0.0021890141973125565
-0.2901934385 -0.09699654579 0.0024385434432906304 -0.00221357129812196
-0.2848719656 -0.09699654579 0.0025124112281717658 -0.0022283984388414848
-0.2795505226 -0.09699654579 0.002592770562689677 -0.0022424548498333283
-0.2742290497 -0.09699654579 0.002678551303386936 -0.002248640750773277
-0.2689076066 -0.09699654579 0.0027721957857564333 -0.0022456600035359814
-0.2635861337 -0.09699654579 0.0028663038033978254 -0.0022355498845444727
-0.2582646906 -0.09699654579 0.0029483752073178856 -0.002215810958032782
-0.2529432178 -0.09699654579 0.0030343722587164055 -0.0021848317474896907
-0.2476217598 -0.09699654579 0.003123680375154287 -0.0021451199467542436
-0.2423003018 -0.09699654579 0.0032094322286448486 -0.002098218276318418
-0.2369788438 -0.09699654579 0.0032799273998929367 -0.0020462568618372368
-0.2316573858 -0.09699654579 0.00334883492562667 -0.0019851887257607563
-0.2263359278 -0.09699654579 0.003420432704200944 -0.0019172681998053044
-0.2210144699 -0.09699654579 0.00347129178335192 -0.0018501833198255296
-0.2156930119 -0.09699654579 0.0035164853489285846 -0.0017774250318554298
-0.2103715539 -0.09699654579 0.0035626342469632566 -0.0017007021673326884
-0.2050500959 -0.09699654579 0.0035929684159103905 -0.0016266753824504749
-0.1997286379 -0.09699654579 0.0036158842766399833 -0.0015518954743939822
-0.19440718 -0.09699654579 0.0036384965050254028 -0.0014751192741914165
-0.189085722 -0.09699654579 0.0036491610877321338 -0.0014020679175314266
-0.183764264 -0.09699654579 0.003655724369090628 -0.0013326518505787787
-0.178442806 -0.09699654579 0.0036607562663318284 -0.0012611627286751189
-0.173121348 -0.09699654579 0.003658231651576201 -0.0011971507755855378
-0.16779989 -0.09699654579 0.003651124726528242 -0.0011353136271614744
-0.1624784321 -0.09699654579 0.003643792006899682 -0.0010729859112444003
-0.1571569741 -0.09699654579 0.003631137978131516 -0.0010155165202285835
-0.1518355161 -0.09699654579 0.003616353190315323 -0.000963520520473097
-0.1465140581 -0.09699654579 0.0036000160119334895 -0.0009113201372379509
-0.1411926001 -0.09699654579 0.0035830406511096068 -0.0008613165464946994
-0.1358711421 -0.09699654579 0.0035631331439899844 -0.0008189680842925666
-0.1305496842 -0.09699654579 0.0035425393885429946 -0.0007763886786530023
-0.1252282262 -0.09699654579 0.003521834226238511 -0.0007336690711989573
-0.1199067682 -0.09699654579 0.003499067526237005 -0.0006972009608867129
-0.1145853102 -0.09699654579 0.0034768953979649607 -0.0006630167483467447
-0.1092638522 -0.09699654579 0.003454276896542688 -0.000628864971734065
-0.1039423943 -0.09699654579 0.0034307475785728225 -0.0005946390134003128
-0.09862093627 -0.09699654579 0.0034077330335646476 -0.0005676818044852728
-0.09329947084 -0.09699654579 0.0033842715104363684 -0.000540804809481653
-0.08797801286 -0.09699654579 0.0033603696810538377 -0.0005139840748149743
-0.08265655488 -0.09699654579 0.0033368293628584355 -0.00048719416315215247
-0.0773350969 -0.09699654579 0.0033141092521611175 -0.0004662208173581919
-0.07201363891 -0.09699654579 0.003291044066270914 -0.00044528237569002826
-0.06669218093 -0.09699654579 0.003267962818610345 -0.00042432420303522536
-0.06137072667 -0.09699654579 0.003244799860663646 -0.00040338207110605603
-0.05604926869 -0.09699654579 0.0032222612733970885 -0.00038629123754727995
-0.05072781071 -0.09699654579 0.0032003738739518083 -0.000370080012609539
-0.045406349 -0.09699654579 0.0031784867552115416 -0.00035386875626735253
-0.04008489102 -0.09699654579 0.0031563564080867887 -0.0003377480124318838
-0.03476343304 -0.09699654579 0.003134411350417179 -0.0003228189793983455
-0.02944197692 -0.09699654579 0.003113624882874444 -0.00031057172076985465
-0.02412051894 -0.09699654579 0.003092891169537103 -0.0002983182946958295
-0.01879905909 -0.09699654579 0.003072112739911112 -0.0002860663084462592
-0.01347760204 -0.09699654579 0.003051238418377426 -0.0002738519185197556
-0.00815614406 -0.09699654579 0.003031135910403593 -0.0002633379149066024
-0.00283468538 -0.09699654579 0.0030117940961577926 -0.0002541737002162702
0.002486772602 -0.09699654579 0.0029923724762209994 -0.0002450452146338035
0.007808230817 -0.09699654579 0.0029729361156771335 -0.00023593105673796978
0.0131296888 -0.09699654579 0.0029535599301071225 -0.00022678102369061968
0.01845114678 -0.09699654579 0.002934913416312251 -0.00021899213232306033
0.02377260476 -0.09699654579 0.0029169328994880285 -0.00021221367241382953
0.02909406275 -0.09699654579 0.002898866308800851 -0.0002054682833903258
0.03441552073 -0.09699654579 0.002880785837786624 -0.00019873575503682266
0.03973697871 -0.09699654579 0.002862803256434623 -0.00019195467494853628
0.04505843669 -0.09699654579 0.002845167496862913 -0.00018592954398495803
0.05037989467 -0.09699654579 0.0028283212301949494 -0.00018123388322181192
0.05570135266 -0.09699654579 0.002811455023244447 -0.00017652939400218835
0.06102281436 -0.09699654579 0.0027945182202025478 -0.00017186897856731725
0.06634426862 -0.09699654579 0.0027776923940940087 -0.00016715878498126444
0.0716657266 -0.09699654579 0.0027608663865596006 -0.00016244859006243724
0.07698718458 -0.09699654579 0.002745179752103537 -0.00015950463248144489
0.08230864257 -0.09699654579 0.002729620693024542 -0.0001566631927017237
0.08763010055 -0.09699654579 0.002714094475622954 -0.00015378297547011816
0.09295155853 -0.09699654579 0.002698575023709288 -0.00015087006756446533
0.09827301651 -0.09699654579 0.002683049439680118 -0.00014799798739711307
0.1035944745 -0.09699654579 0.0026679438019754204 -0.00014556965801000536
0.1089159325 -0.09699654579 0.00265378461701485 -0.00014396978522014957
0.1142373979 -0.09699654579 0.002639663682066114 -0.00014230040112652633
0.1195588559 -0.09699654579 0.002625576711118169 -0.00014061573762282745
0.1248803139 -0.09699654579 0.002611490438152551 -0.00013893106542946137
0.1302017719 -0.09699654579 0.0025973735132020113 -0.00013724631352943754
0.1355232298 -0.09699654579 0.002583766837252923 -0.00013611913390344874
0.1408446878 -0.09699654579 0.0025706515445307887 -0.00013532430205045437
0.1461661458 -0.09699654579 0.002557524952110886 -0.00013452128191812434
0.1514876038 -0.09699654579 0.0025444123686067313 -0.00013371460372146505
0.1568090618 -0.09699654579 0.0025312955407990334 -0.00013290787651837194
0.1621305197 -0.09699654579 0.0025182219862228033 -0.00013204149782354303
0.1674519777 -0.09699654579 0.0025056992166398815 -0.00013193712327787694
0.1727734357 -0.09699654579 0.0024934104888795117 -0.00013212240011206374
0.1780948937 -0.09699654579 0.002481083321049502 -0.00013230192138372827
0.1834163517 -0.09699654579 0.0024687718291404913 -0.00013247596533343304
0.1887378097 -0.09699654579 0.0024565319661313304 -0.00013260979116665005
0.1940592676 -0.09699654579 0.0024442917198912047 -0.0001327435709175283
0.1993807256 -0.09699654579 0.00243281808983756 -0.00013354068518408457
0.2047021836 -0.09699654579 0.002421593086352521 -0.0001345147913581498
0.2100236416 -0.09699654579 0.002410410508318403 -0.00013538982701459654
0.2153450996 -0.09699654579 0.002399236606582188 -0.0001362791583332806
0.2206665576 -0.09699654579 0.002388061752033099 -0.00013716855512575064
0.2259880155 -0.09699654579 0.0023768872875389395 -0.00013806737763653404
0.2313094735 -0.09699654579 0.0023663458628665197 -0.00013921664360973783
0.2366309315 -0.09699654579 0.0023560179814114597 -0.0001404772971597743
0.2419523895 -0.09699654579 0.0023456902008276385 -0.00014173785690036673
0.2472738475 -0.09699654579 0.002335362933092999 -0.00014299847373209183
0.2525953054 -0.09699654579 0.0023250556761133805 -0.00014420630965724832
0.2579167783 -0.09699654579 0.0023147708795217604 -0.00014540673939648875
0.2632382214 -0.09699654579 0.002304950508768777 -0.00014704605372324532
0.2685596943 -0.09699654579 0.0022952450946762217 -0.00014877504455515928
0.2738811374 -0.09699654579 0.0022855626327972344 -0.00015045971276353995
0.2792026103 -0.09699654579 0.0022759123358139484 -0.0001521207275994307
0.2845240533 -0.09699654579 0.0022662565732181695 -0.00015377764416159994
0.2898455262 -0.09699654579 0.0022565847427462606 -0.00015545817310885367
0.2951669693 -0.09699654579 0.0022475751518328336 -0.00015755752676465217
0.3004884422 -0.09699654579 0.002238668296723211 -0.00015966605225349253
0.3058098853 -0.09699654579 0.0022297672069805986 -0.00016177185502722557
0.3111313581 -0.09699654579 0.0022208666521185906 -0.00016387775111069043
0.3164528012 -0.09699654579 0.002211984595938181 -0.00016594344251841557
0.3217742741 -0.09699654579 0.002203165099601312 -0.0001679767786351791
0.3270957172 -0.09699654579 0.0021951025031951934 -0.00017031409382088094
0.3324171901 -0.09699654579 0.0021870403724747103 -0.00017265141011926026
0.3377386332 -0.09699654579 0.0021789975787528163 -0.00017495392551414632
0.343060106 -0.09699654579 0.002170963249142067 -0.00017721219963900194
0.3483815491 -0.09699654579 0.0021629195373226075 -0.00017949088330177236
0.353703022 -0.09699654579 0.00215517678026049 -0.00018182045254133778
0.3590244651 -0.09699654579 0.0021480376777748525 -0.00018421807336262773
0.364345938 -0.09699654579 0.0021408898847526015 -0.00018655203516645534
0.369667381 -0.09699654579 0.0021337327341506345 -0.00018888390077922924
0.3749888539 -0.09699654579 0.0021265804578816084 -0.00019121825601218213
0.380310297 -0.09699654579 0.002119432496296224 -0.00019349430765112463
0.3856317699 -0.09699654579 0.002112942415452232 -0.0001955716797006496
0.390953213 -0.09699654579 0.0021066496485850662 -0.00019763756015255484
0.3962746859 -0.09699654579 0.0021003591270209927 -0.0001997279928696929
0.4015961289 -0.09699654579 0.002094055655689373 -0.00020176691622795633
0.4069176018 -0.09699654579 0.0020877237918445787 -0.0002037611052499944
0.4122390449 -0.09699654579 0.0020816785476763912 -0.00020560904392539838
0.4175605178 -0.09699654579 0.002075998420145085 -0.00020728166361551342
0.4228819609 -0.09699654579 0.002070303678826929 -0.00020890802307164236
0.4282034338 -0.09699654579 0.0020645807229905063 -0.00021049885235331923
0.4335248768 -0.09699654579 0.002058863680451883 -0.00021209869762968284
0.4388463497 -0.09699654579 0.0020533889536039863 -0.00021366046941181417
0.4441677928 -0.09699654579 0.002048288492337677 -0.0002149310013534566
0.4494892657 -0.09699654579 0.002043165779016506 -0.00021619569010743672
0.4548107088 -0.09699654579 0.002038032874961547 -0.0002174650710645988
0.4601321816 -0.09699654579 0.002032920007483505 -0.00021873433232588323
0.4654536247 -0.09699654579 0.002028070879115536 -0.00021970448297003192
0.4707750976 -0.09699654579 0.002023731395451148 -0.0002204857047344374
0.4760965407 -0.09699654579 0.0020194040586380604 -0.0002213110845373586
0.4814180136 -0.09699654579 0.0020150659743643643 -0.00022209497527925955
0.4867394567 -0.09699654579 0.0020106408527358443 -0.0002227798354621894
0.4920609295 -0.09699654579 0.002006977995595279 -0.00022289602917716493
0.4973823726 -0.09699654579 0.002003496499326059 -0.00022288775732613747
0.5027038455 -0.09699654579 0.0020000380020597794 -0.0002228582515372977
0.5080252886 -0.09699654579 0.001996506895615967 -0.00022279748024074377
0.5133467317 -0.09699654579 0.0019934503989539262 -0.0002222430342155433
0.5186682343 -0.09699654579 0.001990933942123308 -0.0002211500884448236
0.5239896774 -0.09699654579 0.0019881722972150016 -0.00021989140705035946
0.5293111205 -0.09699654579 0.0019855705248520484 -0.0002187331122201381
0.5346325636 -0.09699654579 0.0019834196420018785 -0.0002169734684810518
0.5399540663 -0.09699654579 0.0019816621455073158 -0.00021435394665835527
0.5452755094 -0.09699654579 0.0019797242619489903 -0.00021165347351620507
0.5505969524 -0.09699654579 0.001977981916630442 -0.00020904026071463667
0.5559183955 -0.09699654579 0.0019769402825237773 -0.00020514892118625203
0.5612398982 -0.09699654579 0.0019756825246010313 -0.0002006635189777514
0.5665613413 -0.09699654579 0.0019744311175072405 -0.00019618429296814388
0.5718827844 -0.09699654579 0.001973905246441335 -0.00019103929756142236
0.5772042274 -0.09699654579 0.0019733015578639736 -0.0001844997771727035
0.5825257301 -0.09699654579 0.001972706676728599 -0.00017796134658954913
0.5878471732 -0.09699654579 0.0019725824098718284 -0.0001705848377766918
0.5931686163 -0.09699654579 0.001972334265128062 -0.00016168787188584037
0.5984900594 -0.09699654579 0.0019724399453271446 -0.00015273050660029092
0.6038115621 -0.09699654579 0.001972339588561169 -0.00014204172795123516
0.6091330051 -0.09699654579 0.0019728072815876933 -0.00013028313076065933
0.6144544482 -0.09699654579 0.0019726410295766218 -0.00011787878861114198
0.6197758913 -0.09699654579 0.0019727850971184005 -0.00010307732500816027
0.625097394 -0.09699654579 0.0019727675712089723 -8.778555762909406e-05
0.6304188371 -0.09699654579 0.0019723702773134033 -7.038949352919985e-05
0.6357402802 -0.09699654579 0.0019724625039759676 -5.173176090538857e-05
0.6410617828 -0.09699654579 0.0019712963439911858 -3.1339014153815163e-05
0.6463832259 -0.09699654579 0.001969806597869363 -8.713352844067435e-06
0.651704669 -0.09699654579 0.0019679736223558236 1.5747171083076247e-05
0.6570261121 -0.09699654579 0.0019641808156637295 4.292485802760252e-05
0.6623476148 -0.09699654579 0.001959582461792958 7.180977888137016e-05
0.6676690578 -0.09699654579 0.0019540014228943835 0.00010266496578566171
0.6729905009 -0.09699654579 0.001946498395982246 0.00013648502094608964
0.678311944 -0.09699654579 0.0019375976117918105 0.0001730087207812661
0.6836334467 -0.09699654579 0.0019262571497599453 0.00021138581011179554
0.6889548898 -0.09699654579 0.0019115586825467921 0.00025272384575646107
0.6942763329 -0.09699654579 0.0018933921846440642 0.00029687839166223236
0.6995977759 -0.09699654579 0.001872157327120281 0.0003439791356412557
0.7049192786 -0.09699654579 0.0018468772542575024 0.0003927569790634562
0.7102407217 -0.09699654579 0.0018167072139061804 0.0004436380822514122
0.7155621648 -0.09699654579 0.001780049274680546 0.0004965966459499041
0.7208836079 -0.09699654579 0.001738070516764287 0.0005517398356893616
0.7262051105 -0.09699654579 0.0016898545844367353 0.0006074584906757659
0.7315265536 -0.09699654579 0.0016349780406911241 0.0006625874433495093
0.7368479967 -0.09699654579 0.0015732264597694504 0.0007180940043395927
0.7421694398 -0.09699654579 0.001502589106003091 0.000770995911288559
0.7474909425 -0.09699654579 0.0014250411440630277 0.0008230208520579564
0.7528123856 -0.09699654579 0.0013385226859145372 0.0008703339869879376
0.7581338286 -0.09699654579 0.0012451500682630124 0.0009134246868171418
-0.3008363545 -0.09367749095 0.002264333454214998 -0.0021945658083678014
-0.2955148816 -0.09367749095 0.002339016731926005 -0.002232519576916504
-0.2901934385 -0.09367749095 0.0024237337206794683 -0.002262262771484002
-0.2848719656 -0.09367749095 0.002506367047346011 -0.0022833742086903427
-0.2795505226 -0.09367749095 0.00258711605078314 -0.002295588672570713
-0.2742290497 -0.09367749095 0.0026777906512871073 -0.002302828374346295
-0.2689076066 -0.09367749095 0.0027719134716860877 -0.0023034146787433867
-0.2635861337 -0.09367749095 0.0028753574475109908 -0.0022937853216296183
-0.2582646906 -0.09367749095 0.0029664174068716066 -0.0022694994368085684
-0.2529432178 -0.09367749095 0.003055618202753778 -0.002240742318868723
-0.2476217598 -0.09367749095 0.0031471776159781874 -0.0022009343965458564