TITLE     = "fluent16.2.0  build-id: 10212"
VARIABLES = "xx"
"zz"
"uu"
"vv"
DATASETAUXDATA Common.DensityVar="25"
DATASETAUXDATA Common.PressureVar="3"
DATASETAUXDATA Common.TemperatureVar="11"
DATASETAUXDATA Common.TurbulentDynamicViscosityVar="28"
DATASETAUXDATA Common.TurbulentKineticEnergyVar="15"
DATASETAUXDATA Common.UVar="5"
DATASETAUXDATA Common.VectorVarsAreVelocity="TRUE"
DATASETAUXDATA Common.ViscosityVar="27"
DATASETAUXDATA Common.VVar="7"
ZONE T="Rectangular zone"
 STRANDID=0, SOLUTIONTIME=0
 I=200, J=200, K=1, ZONETYPE=Ordered
 DATAPACKING=POINT
 DT=(SINGLE SINGLE SINGLE SINGLE )
 -3.008363545E-001 -1.003156006E-001 4.832939625E+000 4.053389549E+000
 -2.955148816E-001 -1.003156006E-001 4.742732048E+000 3.960644960E+000
 -2.901934385E-001 -1.003156006E-001 4.666933537E+000 3.863372326E+000
 -2.848719656E-001 -1.003156006E-001 4.590111256E+000 3.761670828E+000
 -2.795505226E-001 -1.003156006E-001 4.513942719E+000 3.646515131E+000
 -2.742290497E-001 -1.003156006E-001 4.441998005E+000 3.518332243E+000
 -2.689076066E-001 -1.003156006E-001 4.367147446E+000 3.381130934E+000
 -2.635861337E-001 -1.003156006E-001 4.315210819E+000 3.246357918E+000
 -2.582646906E-001 -1.003156006E-001 4.274435520E+000 3.100275993E+000
 -2.529432178E-001 -1.003156006E-001 4.237313271E+000 2.946846247E+000
 -2.476217598E-001 -1.003156006E-001 4.202680588E+000 2.783779144E+000
 -2.423003018E-001 -1.003156006E-001 4.189912319E+000 2.624481678E+000
 -2.369788438E-001 -1.003156006E-001 4.194155216E+000 2.466117620E+000
 -2.316573858E-001 -1.003156006E-001 4.202089787E+000 2.299001455E+000
 -2.263359278E-001 -1.003156006E-001 4.220626354E+000 2.129847527E+000
 -2.210144699E-001 -1.003156006E-001 4.261780262E+000 1.978397846E+000
 -2.156930119E-001 -1.003156006E-001 4.306620121E+000 1.823010564E+000
 -2.103715539E-001 -1.003156006E-001 4.359807491E+000 1.663794041E+000
 -2.050500959E-001 -1.003156006E-001 4.429209709E+000 1.529935837E+000
 -1.997286379E-001 -1.003156006E-001 4.502072334E+000 1.394620180E+000
 -1.944071800E-001 -1.003156006E-001 4.583379269E+000 1.257237077E+000
 -1.890857220E-001 -1.003156006E-001 4.670265198E+000 1.144653797E+000
 -1.837642640E-001 -1.003156006E-001 4.764983177E+000 1.035287380E+000
 -1.784428060E-001 -1.003156006E-001 4.860348701E+000 9.247178435E-001
 -1.731213480E-001 -1.003156006E-001 4.961388588E+000 8.344184160E-001
 -1.677998900E-001 -1.003156006E-001 5.060447693E+000 7.496293783E-001
 -1.624784321E-001 -1.003156006E-001 5.164909840E+000 6.654606462E-001
 -1.571569741E-001 -1.003156006E-001 5.266334057E+000 5.953171849E-001
 -1.518355161E-001 -1.003156006E-001 5.369204521E+000 5.345950127E-001
 -1.465140581E-001 -1.003156006E-001 5.473084927E+000 4.741503000E-001
 -1.411926001E-001 -1.003156006E-001 5.576077938E+000 4.194176197E-001
 -1.358711421E-001 -1.003156006E-001 5.674252510E+000 3.776782155E-001
 -1.305496842E-001 -1.003156006E-001 5.772427082E+000 3.359388113E-001
 -1.252282262E-001 -1.003156006E-001 5.873137951E+000 2.955193222E-001
 -1.199067682E-001 -1.003156006E-001 5.966777325E+000 2.667505443E-001
 -1.145853102E-001 -1.003156006E-001 6.058597565E+000 2.413400859E-001
 -1.092638522E-001 -1.003156006E-001 6.151778221E+000 2.168944031E-001
 -1.039423943E-001 -1.003156006E-001 6.243992805E+000 1.924414784E-001
 -9.862093627E-002 -1.003156006E-001 6.327221394E+000 1.790281683E-001
 -9.329947084E-002 -1.003156006E-001 6.411523342E+000 1.666051149E-001
 -8.797801286E-002 -1.003156006E-001 6.495825291E+000 1.541820616E-001
 -8.265655488E-002 -1.003156006E-001 6.579925537E+000 1.422995776E-001
 -7.733509690E-002 -1.003156006E-001 6.655221462E+000 1.387039125E-001
 -7.201363891E-002 -1.003156006E-001 6.730427742E+000 1.349929869E-001
 -6.669218093E-002 -1.003156006E-001 6.805634499E+000 1.312820762E-001
 -6.137072667E-002 -1.003156006E-001 6.881547928E+000 1.284875870E-001
 -5.604926869E-002 -1.003156006E-001 6.950181484E+000 1.307048202E-001
 -5.072781071E-002 -1.003156006E-001 7.016999722E+000 1.340529770E-001
 -4.540634900E-002 -1.003156006E-001 7.083590508E+000 1.370294690E-001
 -4.008489102E-002 -1.003156006E-001 7.150621891E+000 1.407264024E-001
 -3.476343304E-002 -1.003156006E-001 7.215107441E+000 1.457034796E-001
 -2.944197692E-002 -1.003156006E-001 7.273835182E+000 1.535767913E-001
 -2.412051894E-002 -1.003156006E-001 7.332661629E+000 1.616573781E-001
 -1.879905909E-002 -1.003156006E-001 7.391624928E+000 1.700252593E-001
 -1.347760204E-002 -1.003156006E-001 7.450439930E+000 1.780817211E-001
 -8.156144060E-003 -1.003156006E-001 7.505205154E+000 1.876887083E-001
 -2.834685380E-003 -1.003156006E-001 7.556733608E+000 1.985350549E-001
 2.486772602E-003 -1.003156006E-001 7.608457565E+000 2.099240124E-001
 7.808230817E-003 -1.003156006E-001 7.660185337E+000 2.213219404E-001
 1.312968880E-002 -1.003156006E-001 7.711747646E+000 2.322629690E-001
 1.845114678E-002 -1.003156006E-001 7.759777069E+000 2.442252487E-001
 2.377260476E-002 -1.003156006E-001 7.805107594E+000 2.570724487E-001
 2.909406275E-002 -1.003156006E-001 7.850532055E+000 2.702539265E-001
 3.441552073E-002 -1.003156006E-001 7.895956993E+000 2.834354043E-001
 3.973697871E-002 -1.003156006E-001 7.941299438E+000 2.963258624E-001
 4.505843669E-002 -1.003156006E-001 7.984747887E+000 3.095197976E-001
 5.037989467E-002 -1.003156006E-001 8.024688721E+000 3.235266507E-001
 5.570135266E-002 -1.003156006E-001 8.064682961E+000 3.377916813E-001
 6.102281436E-002 -1.003156006E-001 8.104690552E+000 3.521184027E-001
 6.634426862E-002 -1.003156006E-001 8.144649506E+000 3.662133813E-001
 7.166572660E-002 -1.003156006E-001 8.184577942E+000 3.801647723E-001
 7.698718458E-002 -1.003156006E-001 8.220183372E+000 3.947520852E-001
 8.230864257E-002 -1.003156006E-001 8.255424500E+000 4.093928635E-001
 8.763010055E-002 -1.003156006E-001 8.290683746E+000 4.241917431E-001
 9.295155853E-002 -1.003156006E-001 8.325925827E+000 4.388352334E-001
 9.827301651E-002 -1.003156006E-001 8.361157417E+000 4.533849359E-001
 1.035944745E-001 -1.003156006E-001 8.395157814E+000 4.680024385E-001
 1.089159325E-001 -1.003156006E-001 8.426506042E+000 4.827660620E-001
 1.142373979E-001 -1.003156006E-001 8.457853317E+000 4.975297153E-001
 1.195588559E-001 -1.003156006E-001 8.489192009E+000 5.120242238E-001
 1.248803139E-001 -1.003156006E-001 8.520533562E+000 5.266078115E-001
 1.302017719E-001 -1.003156006E-001 8.551877975E+000 5.412660241E-001
 1.355232298E-001 -1.003156006E-001 8.581470490E+000 5.559635758E-001
 1.408446878E-001 -1.003156006E-001 8.609700203E+000 5.706046224E-001
 1.461661458E-001 -1.003156006E-001 8.637925148E+000 5.850960016E-001
 1.514876038E-001 -1.003156006E-001 8.666151047E+000 5.995873809E-001
 1.568090618E-001 -1.003156006E-001 8.694375992E+000 6.140787601E-001
 1.621305197E-001 -1.003156006E-001 8.722609520E+000 6.285699010E-001
 1.674519777E-001 -1.003156006E-001 8.749002457E+000 6.429590583E-001
 1.727734357E-001 -1.003156006E-001 8.774578094E+000 6.574255228E-001
 1.780948937E-001 -1.003156006E-001 8.800153732E+000 6.718919873E-001
 1.834163517E-001 -1.003156006E-001 8.825730324E+000 6.863584518E-001
 1.887378097E-001 -1.003156006E-001 8.851305962E+000 7.007268667E-001
 1.940592676E-001 -1.003156006E-001 8.876881599E+000 7.149626017E-001
 1.993807256E-001 -1.003156006E-001 8.900747299E+000 7.290963531E-001
 2.047021836E-001 -1.003156006E-001 8.924029350E+000 7.431952953E-001
 2.100236416E-001 -1.003156006E-001 8.947312355E+000 7.572804689E-001
 2.153450996E-001 -1.003156006E-001 8.970616341E+000 7.711939812E-001
 2.206665576E-001 -1.003156006E-001 8.993911743E+000 7.851874232E-001
 2.259880155E-001 -1.003156006E-001 9.017206192E+000 7.991808653E-001
 2.313094735E-001 -1.003156006E-001 9.039224625E+000 8.129928708E-001
 2.366309315E-001 -1.003156006E-001 9.060853004E+000 8.266336322E-001
 2.419523895E-001 -1.003156006E-001 9.082484245E+000 8.402461410E-001
 2.472738475E-001 -1.003156006E-001 9.104125977E+000 8.538596630E-001
 2.525953054E-001 -1.003156006E-001 9.125773430E+000 8.674738407E-001
 2.579167783E-001 -1.003156006E-001 9.147428513E+000 8.810005784E-001
 2.632382214E-001 -1.003156006E-001 9.168049812E+000 8.944455385E-001
 2.685596943E-001 -1.003156006E-001 9.188382149E+000 9.078863263E-001
 2.738811374E-001 -1.003156006E-001 9.208712578E+000 9.213786721E-001
 2.792026103E-001 -1.003156006E-001 9.229043961E+000 9.348251820E-001
 2.845240533E-001 -1.003156006E-001 9.249379158E+000 9.481859207E-001
 2.898455262E-001 -1.003156006E-001 9.269714355E+000 9.615467191E-001
 2.951669693E-001 -1.003156006E-001 9.289105415E+000 9.748412967E-001
 3.004884422E-001 -1.003156006E-001 9.308332443E+000 9.881009459E-001
 3.058098853E-001 -1.003156006E-001 9.327567101E+000 1.001281977E+000
 3.111313581E-001 -1.003156006E-001 9.346802711E+000 1.014463067E+000
 3.164528012E-001 -1.003156006E-001 9.366037369E+000 1.027644038E+000
 3.217742741E-001 -1.003156006E-001 9.385274887E+000 1.040810227E+000
 3.270957172E-001 -1.003156006E-001 9.403745651E+000 1.053911448E+000
 3.324171901E-001 -1.003156006E-001 9.422217369E+000 1.067023158E+000
 3.377386332E-001 -1.003156006E-001 9.440690041E+000 1.080134869E+000
 3.430601060E-001 -1.003156006E-001 9.459161758E+000 1.093242526E+000
 3.483815491E-001 -1.003156006E-001 9.477627754E+000 1.106270671E+000
 3.537030220E-001 -1.003156006E-001 9.495920181E+000 1.119325280E+000
 3.590244651E-001 -1.003156006E-001 9.513794899E+000 1.132443190E+000
 3.643459380E-001 -1.003156006E-001 9.531668663E+000 1.145560503E+000
 3.696673810E-001 -1.003156006E-001 9.549535751E+000 1.158614516E+000
 3.749888539E-001 -1.003156006E-001 9.567403793E+000 1.171680689E+000
 3.803102970E-001 -1.003156006E-001 9.585274696E+000 1.184762716E+000
 3.856317699E-001 -1.003156006E-001 9.602865219E+000 1.197897434E+000
 3.909532130E-001 -1.003156006E-001 9.620345116E+000 1.211023688E+000
 3.962746859E-001 -1.003156006E-001 9.637825966E+000 1.224149942E+000
 4.015961289E-001 -1.003156006E-001 9.655312538E+000 1.237274170E+000
 4.069176018E-001 -1.003156006E-001 9.672797203E+000 1.250396013E+000
 4.122390449E-001 -1.003156006E-001 9.690206528E+000 1.263579488E+000
 4.175605178E-001 -1.003156006E-001 9.707534790E+000 1.276912212E+000
 4.228819609E-001 -1.003156006E-001 9.724884033E+000 1.290249228E+000
 4.282034338E-001 -1.003156006E-001 9.742226601E+000 1.303584814E+000
 4.335248768E-001 -1.003156006E-001 9.759527206E+000 1.316912293E+000
 4.388463497E-001 -1.003156006E-001 9.776827812E+000 1.330343246E+000
 4.441677928E-001 -1.003156006E-001 9.794122696E+000 1.344074011E+000
 4.494892657E-001 -1.003156006E-001 9.811396599E+000 1.357805371E+000
 4.548107088E-001 -1.003156006E-001 9.828620911E+000 1.371538162E+000
 4.601321816E-001 -1.003156006E-001 9.845883369E+000 1.385269880E+000
 4.654536247E-001 -1.003156006E-001 9.863166809E+000 1.399191499E+000
 4.707750976E-001 -1.003156006E-001 9.880437851E+000 1.413436532E+000
 4.760965407E-001 -1.003156006E-001 9.897661209E+000 1.427690268E+000
 4.814180136E-001 -1.003156006E-001 9.914884567E+000 1.441944122E+000
 4.867394567E-001 -1.003156006E-001 9.932107925E+000 1.456197977E+000
 4.920609295E-001 -1.003156006E-001 9.949400902E+000 1.470911622E+000
 4.973823726E-001 -1.003156006E-001 9.966705322E+000 1.485766292E+000
 5.027038455E-001 -1.003156006E-001 9.984009743E+000 1.500620961E+000
 5.080252886E-001 -1.003156006E-001 1.000131035E+001 1.515476227E+000
 5.133467317E-001 -1.003156006E-001 1.001853657E+001 1.530681849E+000
 5.186682343E-001 -1.003156006E-001 1.003595448E+001 1.546280861E+000
 5.239896774E-001 -1.003156006E-001 1.005340290E+001 1.561875463E+000
 5.293111205E-001 -1.003156006E-001 1.007078362E+001 1.577479482E+000
 5.346325636E-001 -1.003156006E-001 1.008811092E+001 1.593465686E+000
 5.399540663E-001 -1.003156006E-001 1.010561562E+001 1.609921813E+000
 5.452755094E-001 -1.003156006E-001 1.012321568E+001 1.626372933E+000
 5.505969524E-001 -1.003156006E-001 1.014064884E+001 1.642832518E+000
 5.559183955E-001 -1.003156006E-001 1.015812302E+001 1.659991264E+000
 5.612398982E-001 -1.003156006E-001 1.017585182E+001 1.677387476E+000
 5.665613413E-001 -1.003156006E-001 1.019353676E+001 1.694780350E+000
 5.718827844E-001 -1.003156006E-001 1.021111107E+001 1.712588310E+000
 5.772042274E-001 -1.003156006E-001 1.022897720E+001 1.731004834E+000
 5.825257301E-001 -1.003156006E-001 1.024688530E+001 1.749429464E+000
 5.878471732E-001 -1.003156006E-001 1.026469898E+001 1.768319249E+000
 5.931686163E-001 -1.003156006E-001 1.028277111E+001 1.787870646E+000
 5.984900594E-001 -1.003156006E-001 1.030088329E+001 1.807365060E+000
 6.038115621E-001 -1.003156006E-001 1.031920433E+001 1.827792406E+000
 6.091330051E-001 -1.003156006E-001 1.033748436E+001 1.848425627E+000
 6.144544482E-001 -1.003156006E-001 1.035600567E+001 1.869712234E+000
 6.197758913E-001 -1.003156006E-001 1.037438202E+001 1.891585588E+000
 6.250973940E-001 -1.003156006E-001 1.039278126E+001 1.913948774E+000
 6.304188371E-001 -1.003156006E-001 1.041127110E+001 1.937215686E+000
 6.357402802E-001 -1.003156006E-001 1.042934895E+001 1.960852981E+000
 6.410617828E-001 -1.003156006E-001 1.044754219E+001 1.985323906E+000
 6.463832259E-001 -1.003156006E-001 1.046560574E+001 2.010318041E+000
 6.517046690E-001 -1.003156006E-001 1.048366737E+001 2.035828114E+000
 6.570261121E-001 -1.003156006E-001 1.050115108E+001 2.062283516E+000
 6.623476148E-001 -1.003156006E-001 1.051859093E+001 2.089535475E+000
 6.676690578E-001 -1.003156006E-001 1.053582859E+001 2.117434740E+000
 6.729905009E-001 -1.003156006E-001 1.055253410E+001 2.146560907E+000
 6.783119440E-001 -1.003156006E-001 1.056874275E+001 2.176282167E+000
 6.836334467E-001 -1.003156006E-001 1.058468056E+001 2.206858635E+000
 6.889548898E-001 -1.003156006E-001 1.060018063E+001 2.238597393E+000
 6.942763329E-001 -1.003156006E-001 1.061488342E+001 2.271237135E+000
 6.995977759E-001 -1.003156006E-001 1.062901878E+001 2.304727793E+000
 7.049192786E-001 -1.003156006E-001 1.064246082E+001 2.339036226E+000
 7.102407217E-001 -1.003156006E-001 1.065508652E+001 2.374450684E+000
 7.155621648E-001 -1.003156006E-001 1.066654873E+001 2.410785437E+000
 7.208836079E-001 -1.003156006E-001 1.067692566E+001 2.447827101E+000
 7.262051105E-001 -1.003156006E-001 1.068631649E+001 2.485666037E+000
 7.315265536E-001 -1.003156006E-001 1.069435024E+001 2.524337769E+000
 7.368479967E-001 -1.003156006E-001 1.070071888E+001 2.563905954E+000
 7.421694398E-001 -1.003156006E-001 1.070580006E+001 2.604092360E+000
 7.474909425E-001 -1.003156006E-001 1.070967102E+001 2.644000769E+000
 7.528123856E-001 -1.003156006E-001 1.071159554E+001 2.684804201E+000
 7.581338286E-001 -1.003156006E-001 1.071200466E+001 2.725876570E+000
 -3.008363545E-001 -9.699654579E-002 4.784849167E+000 4.109236240E+000
 -2.955148816E-001 -9.699654579E-002 4.687501907E+000 4.018450260E+000
 -2.901934385E-001 -9.699654579E-002 4.595958233E+000 3.915534019E+000
 -2.848719656E-001 -9.699654579E-002 4.519194603E+000 3.808549643E+000
 -2.795505226E-001 -9.699654579E-002 4.438833237E+000 3.694026709E+000
 -2.742290497E-001 -9.699654579E-002 4.361942768E+000 3.566697121E+000
 -2.689076066E-001 -9.699654579E-002 4.288215637E+000 3.422670364E+000
 -2.635861337E-001 -9.699654579E-002 4.220688343E+000 3.274025202E+000
 -2.582646906E-001 -9.699654579E-002 4.175263882E+000 3.129379034E+000
 -2.529432178E-001 -9.699654579E-002 4.137975216E+000 2.970188141E+000
 -2.476217598E-001 -9.699654579E-002 4.106703281E+000 2.798559666E+000
 -2.423003018E-001 -9.699654579E-002 4.085887432E+000 2.625287771E+000
 -2.369788438E-001 -9.699654579E-002 4.087501049E+000 2.462557793E+000
 -2.316573858E-001 -9.699654579E-002 4.100836277E+000 2.291693687E+000
 -2.263359278E-001 -9.699654579E-002 4.118453503E+000 2.110560656E+000
 -2.210144699E-001 -9.699654579E-002 4.157913208E+000 1.952043891E+000
 -2.156930119E-001 -9.699654579E-002 4.210774899E+000 1.792431235E+000
 -2.103715539E-001 -9.699654579E-002 4.267322063E+000 1.626905441E+000
 -2.050500959E-001 -9.699654579E-002 4.338758469E+000 1.482839704E+000
 -1.997286379E-001 -9.699654579E-002 4.420458794E+000 1.345360160E+000
 -1.944071800E-001 -9.699654579E-002 4.504501343E+000 1.205848098E+000
 -1.890857220E-001 -9.699654579E-002 4.600065708E+000 1.085843205E+000
 -1.837642640E-001 -9.699654579E-002 4.697539806E+000 9.744390249E-001
 -1.784428060E-001 -9.699654579E-002 4.799763203E+000 8.628367782E-001
 -1.731213480E-001 -9.699654579E-002 4.902393341E+000 7.700351477E-001
 -1.677998900E-001 -9.699654579E-002 5.009002209E+000 6.857180595E-001
 -1.624784321E-001 -9.699654579E-002 5.116585732E+000 6.007474065E-001
 -1.571569741E-001 -9.699654579E-002 5.225358009E+000 5.296023488E-001
 -1.518355161E-001 -9.699654579E-002 5.331092834E+000 4.689840376E-001
 -1.465140581E-001 -9.699654579E-002 5.439309597E+000 4.092197716E-001
 -1.411926001E-001 -9.699654579E-002 5.545419216E+000 3.541708589E-001
 -1.358711421E-001 -9.699654579E-002 5.646619797E+000 3.140060604E-001
 -1.305496842E-001 -9.699654579E-002 5.749157906E+000 2.745372653E-001
 -1.252282262E-001 -9.699654579E-002 5.851986408E+000 2.348146886E-001
 -1.199067682E-001 -9.699654579E-002 5.949455261E+000 2.074537277E-001
 -1.145853102E-001 -9.699654579E-002 6.043270588E+000 1.830790043E-001
 -1.092638522E-001 -9.699654579E-002 6.137756348E+000 1.592406780E-001
 -1.039423943E-001 -9.699654579E-002 6.233413219E+000 1.365503967E-001
 -9.862093627E-002 -9.699654579E-002 6.318514347E+000 1.246709451E-001
 -9.329947084E-002 -9.699654579E-002 6.404246807E+000 1.134395525E-001
 -8.797801286E-002 -9.699654579E-002 6.490613937E+000 1.028602794E-001
 -8.265655488E-002 -9.699654579E-002 6.576056957E+000 9.188766778E-002
 -7.733509690E-002 -9.699654579E-002 6.652135849E+000 8.930766582E-002
 -7.201363891E-002 -9.699654579E-002 6.728704929E+000 8.736342192E-002
 -6.669218093E-002 -9.699654579E-002 6.805302620E+000 8.539731801E-002
 -6.137072667E-002 -9.699654579E-002 6.882080078E+000 8.354803920E-002
 -5.604926869E-002 -9.699654579E-002 6.951781273E+000 8.710026741E-002
 -5.072781071E-002 -9.699654579E-002 7.019231796E+000 9.135423601E-002
 -4.540634900E-002 -9.699654579E-002 7.086682796E+000 9.560820460E-002
 -4.008489102E-002 -9.699654579E-002 7.154417515E+000 1.003690585E-001
 -3.476343304E-002 -9.699654579E-002 7.219751835E+000 1.066987962E-001
 -2.944197692E-002 -9.699654579E-002 7.279064655E+000 1.157638803E-001
 -2.412051894E-002 -9.699654579E-002 7.338323116E+000 1.247038767E-001
 -1.879905909E-002 -9.699654579E-002 7.397627831E+000 1.337500066E-001
 -1.347760204E-002 -9.699654579E-002 7.457028389E+000 1.430198401E-001
 -8.156144060E-003 -9.699654579E-002 7.512231350E+000 1.537175477E-001
 -2.834685380E-003 -9.699654579E-002 7.564110756E+000 1.655455977E-001
 2.486772602E-003 -9.699654579E-002 7.616055012E+000 1.775770634E-001
 7.808230817E-003 -9.699654579E-002 7.668011189E+000 1.896459758E-001
 1.312968880E-002 -9.699654579E-002 7.719919205E+000 2.015622705E-001
 1.845114678E-002 -9.699654579E-002 7.768170357E+000 2.144223899E-001
 2.377260476E-002 -9.699654579E-002 7.813692570E+000 2.279870361E-001
 2.909406275E-002 -9.699654579E-002 7.859273434E+000 2.417836487E-001
 3.441552073E-002 -9.699654579E-002 7.904864311E+000 2.556196749E-001
 3.973697871E-002 -9.699654579E-002 7.950387478E+000 2.691894472E-001
 4.505843669E-002 -9.699654579E-002 7.993943691E+000 2.831572890E-001
 5.037989467E-002 -9.699654579E-002 8.034005165E+000 2.978324294E-001
 5.570135266E-002 -9.699654579E-002 8.074073792E+000 3.125545382E-001
 6.102281436E-002 -9.699654579E-002 8.114175797E+000 3.274550736E-001
 6.634426862E-002 -9.699654579E-002 8.154227257E+000 3.420784771E-001
 7.166572660E-002 -9.699654579E-002 8.194278717E+000 3.567018509E-001
 7.698718458E-002 -9.699654579E-002 8.229835510E+000 3.718591034E-001
 8.230864257E-002 -9.699654579E-002 8.265111923E+000 3.870497048E-001
 8.763010055E-002 -9.699654579E-002 8.300380707E+000 4.021438360E-001
 9.295155853E-002 -9.699654579E-002 8.335648537E+000 4.172186255E-001
 9.827301651E-002 -9.699654579E-002 8.370918274E+000 4.323194325E-001
 1.035944745E-001 -9.699654579E-002 8.404850960E+000 4.474511445E-001
 1.089159325E-001 -9.699654579E-002 8.436187744E+000 4.626427889E-001
 1.142373979E-001 -9.699654579E-002 8.467524529E+000 4.776778817E-001
 1.195588559E-001 -9.699654579E-002 8.498861313E+000 4.926128089E-001
 1.248803139E-001 -9.699654579E-002 8.530198097E+000 5.075477362E-001
 1.302017719E-001 -9.699654579E-002 8.561534882E+000 5.225614905E-001
 1.355232298E-001 -9.699654579E-002 8.591033936E+000 5.376269221E-001
 1.408446878E-001 -9.699654579E-002 8.619254112E+000 5.524803996E-001
 1.461661458E-001 -9.699654579E-002 8.647482872E+000 5.673338771E-001
 1.514876038E-001 -9.699654579E-002 8.675721169E+000 5.821872354E-001
 1.568090618E-001 -9.699654579E-002 8.703959465E+000 5.970406532E-001
 1.621305197E-001 -9.699654579E-002 8.732192039E+000 6.117497683E-001
 1.674519777E-001 -9.699654579E-002 8.758485794E+000 6.264147758E-001
 1.727734357E-001 -9.699654579E-002 8.784038544E+000 6.410983801E-001
 1.780948937E-001 -9.699654579E-002 8.809588432E+000 6.558657885E-001
 1.834163517E-001 -9.699654579E-002 8.835140228E+000 6.705939770E-001
 1.887378097E-001 -9.699654579E-002 8.860694885E+000 6.851589680E-001
 1.940592676E-001 -9.699654579E-002 8.886249542E+000 6.997238994E-001
 1.993807256E-001 -9.699654579E-002 8.909991264E+000 7.141246796E-001
 2.047021836E-001 -9.699654579E-002 8.933215141E+000 7.284785509E-001
 2.100236416E-001 -9.699654579E-002 8.956468582E+000 7.426595092E-001
 2.153450996E-001 -9.699654579E-002 8.979721069E+000 7.568386793E-001
 2.206665576E-001 -9.699654579E-002 9.002974510E+000 7.710178494E-001
 2.259880155E-001 -9.699654579E-002 9.026227951E+000 7.851970196E-001
 2.313094735E-001 -9.699654579E-002 9.048177719E+000 7.990785241E-001
 2.366309315E-001 -9.699654579E-002 9.069788933E+000 8.128896952E-001
 2.419523895E-001 -9.699654579E-002 9.091400146E+000 8.267008662E-001
 2.472738475E-001 -9.699654579E-002 9.113012314E+000 8.405119777E-001
 2.525953054E-001 -9.699654579E-002 9.134633064E+000 8.542313576E-001
 2.579167783E-001 -9.699654579E-002 9.156258583E+000 8.679001927E-001
 2.632382214E-001 -9.699654579E-002 9.176802635E+000 8.815309405E-001
 2.685596943E-001 -9.699654579E-002 9.197107315E+000 8.951532841E-001
 2.738811374E-001 -9.699654579E-002 9.217416763E+000 9.087062478E-001
 2.792026103E-001 -9.699654579E-002 9.237730980E+000 9.222013354E-001
 2.845240533E-001 -9.699654579E-002 9.258045197E+000 9.356963634E-001
 2.898455262E-001 -9.699654579E-002 9.278355598E+000 9.492368698E-001
 2.951669693E-001 -9.699654579E-002 9.297681808E+000 9.626196623E-001
 3.004884422E-001 -9.699654579E-002 9.316898346E+000 9.759422541E-001
 3.058098853E-001 -9.699654579E-002 9.336119652E+000 9.892652035E-001
 3.111313581E-001 -9.699654579E-002 9.355340004E+000 1.002588153E+000
 3.164528012E-001 -9.699654579E-002 9.374565125E+000 1.015863419E+000
 3.217742741E-001 -9.699654579E-002 9.393762589E+000 1.029083133E+000
 3.270957172E-001 -9.699654579E-002 9.412223816E+000 1.042272091E+000
 3.324171901E-001 -9.699654579E-002 9.430685043E+000 1.055461049E+000
 3.377386332E-001 -9.699654579E-002 9.449146271E+000 1.068613291E+000
 3.430601060E-001 -9.699654579E-002 9.467606544E+000 1.081739306E+000
 3.483815491E-001 -9.699654579E-002 9.486066818E+000 1.094880819E+000
 3.537030220E-001 -9.699654579E-002 9.504333496E+000 1.108044028E+000
 3.590244651E-001 -9.699654579E-002 9.522202492E+000 1.121218801E+000
 3.643459380E-001 -9.699654579E-002 9.540070534E+000 1.134365201E+000
 3.696673810E-001 -9.699654579E-002 9.557945251E+000 1.147511363E+000
 3.749888539E-001 -9.699654579E-002 9.575822830E+000 1.160657525E+000
 3.803102970E-001 -9.699654579E-002 9.593695641E+000 1.173764825E+000
 3.856317699E-001 -9.699654579E-002 9.611273766E+000 1.186902761E+000
 3.909532130E-001 -9.699654579E-002 9.628768921E+000 1.200056791E+000
 3.962746859E-001 -9.699654579E-002 9.646269798E+000 1.213223219E+000
 4.015961289E-001 -9.699654579E-002 9.663761139E+000 1.226369977E+000
 4.069176018E-001 -9.699654579E-002 9.681247711E+000 1.239508867E+000
 4.122390449E-001 -9.699654579E-002 9.698693275E+000 1.252734065E+000
 4.175605178E-001 -9.699654579E-002 9.716080666E+000 1.266079187E+000
 4.228819609E-001 -9.699654579E-002 9.733432770E+000 1.279421210E+000
 4.282034338E-001 -9.699654579E-002 9.750779152E+000 1.292762995E+000
 4.335248768E-001 -9.699654579E-002 9.768125534E+000 1.306104541E+000
 4.388463497E-001 -9.699654579E-002 9.785491943E+000 1.319558024E+000
 4.441677928E-001 -9.699654579E-002 9.802827835E+000 1.333292007E+000
 4.494892657E-001 -9.699654579E-002 9.820164680E+000 1.347021699E+000
 4.548107088E-001 -9.699654579E-002 9.837501526E+000 1.360751271E+000
 4.601321816E-001 -9.699654579E-002 9.854816437E+000 1.374481559E+000
 4.654536247E-001 -9.699654579E-002 9.872100830E+000 1.388415217E+000
 4.707750976E-001 -9.699654579E-002 9.889416695E+000 1.402652264E+000
 4.760965407E-001 -9.699654579E-002 9.906787872E+000 1.416878819E+000
 4.814180136E-001 -9.699654579E-002 9.924105644E+000 1.431115389E+000
 4.867394567E-001 -9.699654579E-002 9.941385269E+000 1.445358872E+000
 4.920609295E-001 -9.699654579E-002 9.958780289E+000 1.460062623E+000
 4.973823726E-001 -9.699654579E-002 9.976207733E+000 1.474894285E+000
 5.027038455E-001 -9.699654579E-002 9.993542671E+000 1.489752054E+000
 5.080252886E-001 -9.699654579E-002 1.001093006E+001 1.504594922E+000
 5.133467317E-001 -9.699654579E-002 1.002841759E+001 1.519762874E+000
 5.186682343E-001 -9.699654579E-002 1.004597759E+001 1.535341024E+000
 5.239896774E-001 -9.699654579E-002 1.006342888E+001 1.550947070E+000
 5.293111205E-001 -9.699654579E-002 1.008092022E+001 1.566542745E+000
 5.346325636E-001 -9.699654579E-002 1.009858704E+001 1.582475305E+000
 5.399540663E-001 -9.699654579E-002 1.011623001E+001 1.598926067E+000
 5.452755094E-001 -9.699654579E-002 1.013383102E+001 1.615384698E+000
 5.505969524E-001 -9.699654579E-002 1.015147400E+001 1.631835461E+000
 5.559183955E-001 -9.699654579E-002 1.016932297E+001 1.648945212E+000
 5.612398982E-001 -9.699654579E-002 1.018707371E+001 1.666336060E+000
 5.665613413E-001 -9.699654579E-002 1.020482349E+001 1.683726668E+000
 5.718827844E-001 -9.699654579E-002 1.022283840E+001 1.701464415E+000
 5.772042274E-001 -9.699654579E-002 1.024079227E+001 1.719851851E+000
 5.825257301E-001 -9.699654579E-002 1.025874519E+001 1.738239408E+000
 5.878471732E-001 -9.699654579E-002 1.027700233E+001 1.757022977E+000
 5.931686163E-001 -9.699654579E-002 1.029523849E+001 1.776509762E+000
 5.984900594E-001 -9.699654579E-002 1.031360149E+001 1.796018720E+000
 6.038115621E-001 -9.699654579E-002 1.033207893E+001 1.816339493E+000
 6.091330051E-001 -9.699654579E-002 1.035072041E+001 1.837087631E+000
 6.144544482E-001 -9.699654579E-002 1.036928082E+001 1.858185172E+000
 6.197758913E-001 -9.699654579E-002 1.038805866E+001 1.880260944E+000
 6.250973940E-001 -9.699654579E-002 1.040672493E+001 1.902534962E+000
 6.304188371E-001 -9.699654579E-002 1.042545319E+001 1.925843239E+000
 6.357402802E-001 -9.699654579E-002 1.044441223E+001 1.949470162E+000
 6.410617828E-001 -9.699654579E-002 1.046289253E+001 1.973744750E+000
 6.463832259E-001 -9.699654579E-002 1.048150921E+001 1.998901606E+000
 6.517046690E-001 -9.699654579E-002 1.049997234E+001 2.024618626E+000
 6.570261121E-001 -9.699654579E-002 1.051798725E+001 2.051401377E+000
 6.623476148E-001 -9.699654579E-002 1.053578949E+001 2.078748703E+000
 6.676690578E-001 -9.699654579E-002 1.055348778E+001 2.107001781E+000
 6.729905009E-001 -9.699654579E-002 1.057076836E+001 2.136100054E+000
 6.783119440E-001 -9.699654579E-002 1.058787251E+001 2.166103601E+000
 6.836334467E-001 -9.699654579E-002 1.060451317E+001 2.196881294E+000
 6.889548898E-001 -9.699654579E-002 1.062043381E+001 2.228778362E+000
 6.942763329E-001 -9.699654579E-002 1.063580799E+001 2.261784554E+000
 6.995977759E-001 -9.699654579E-002 1.065071106E+001 2.295833111E+000
 7.049192786E-001 -9.699654579E-002 1.066471672E+001 2.330672264E+000
 7.102407217E-001 -9.699654579E-002 1.067777729E+001 2.366561174E+000
 7.155621648E-001 -9.699654579E-002 1.068966389E+001 2.403593779E+000
 7.208836079E-001 -9.699654579E-002 1.070069408E+001 2.441674948E+000
 7.262051105E-001 -9.699654579E-002 1.071043110E+001 2.480521679E+000
 7.315265536E-001 -9.699654579E-002 1.071895981E+001 2.519823790E+000
 7.368479967E-001 -9.699654579E-002 1.072604942E+001 2.560211182E+000
 7.421694398E-001 -9.699654579E-002 1.073137951E+001 2.601078510E+000
 7.474909425E-001 -9.699654579E-002 1.073536777E+001 2.642544270E+000
 7.528123856E-001 -9.699654579E-002 1.073748589E+001 2.684210777E+000
 7.581338286E-001 -9.699654579E-002 1.073789978E+001 2.726053953E+000
 -3.008363545E-001 -9.367749095E-002 4.735471725E+000 4.168625355E+000
 -2.955148816E-001 -9.367749095E-002 4.632782936E+000 4.078092098E+000
 -2.901934385E-001 -9.367749095E-002 4.531986713E+000 3.970918417E+000
 -2.848719656E-001 -9.367749095E-002 4.441012859E+000 3.861047029E+000
 -2.795505226E-001 -9.367749095E-002 4.361759186E+000 3.744409323E+000
 -2.742290497E-001 -9.367749095E-002 4.280148029E+000 3.612715483E+000
 -2.689076066E-001 -9.367749095E-002 4.202098846E+000 3.471562624E+000
 -2.635861337E-001 -9.367749095E-002 4.126558781E+000 3.311246634E+000
 -2.582646906E-001 -9.367749095E-002 4.076479912E+000 3.153355598E+000
 -2.529432178E-001 -9.367749095E-002 4.034055233E+000 2.992990255E+000
 -2.476217598E-001 -9.367749095E-002 4.000483990E+000 2.819275141E+000
 -2.423003018E-001 -9.367749095E-002 3.974975586E+000 2.629859924E+000
 -2.369788438E-001 -9.367749095E-002 3.979419470E+000 2.458182096E+000
 -2.316573858E-001 -9.367749095E-002 3.991648197E+000 2.280174732E+000
 -2.263359278E-001 -9.367749095E-002 4.015350342E+000 2.094718695E+000
 -2.210144699E-001 -9.367749095E-002 4.055989265E+000 1.920500159E+000
 -2.156930119E-001 -9.367749095E-002 4.109851360E+000 1.756078362E+000
 -2.103715539E-001 -9.367749095E-002 4.173282623E+000 1.587722063E+000