VARIABLES = X,Y,phix,phiy
ZONE I=200,J=200,F=POINT 
-0.3008363545 -0.1003156006 -7.644325204174683e-05 0.0002589242754283518
-0.2955148816 -0.1003156006 -9.958009613653111e-05 0.0002447542248381594
-0.2901934385 -0.1003156006 -0.00013320372082334085 0.00021951834416762922
-0.2848719656 -0.1003156006 -0.0001684424700972775 0.00019328030738168447
-0.2795505226 -0.1003156006 -0.00020862619669067393 0.00015515388080142005
-0.2742290497 -0.1003156006 -0.00025231792448247907 0.00010228437546761721
-0.2689076066 -0.1003156006 -0.0003068149546491732 3.903096095551518e-05
-0.2635861337 -0.1003156006 -0.00030941427516281846 3.0345427577727183e-05
-0.2582646906 -0.1003156006 -0.00027580467253213067 3.995118571088897e-05
-0.2529432178 -0.1003156006 -0.0002272073299557062 5.3182763190905445e-05
-0.2476217598 -0.1003156006 -0.00016011565144805287 7.063315470394227e-05
-0.2423003018 -0.1003156006 -0.00011293751689395283 5.9184060890487315e-05
-0.2369788438 -0.1003156006 -8.686198250277192e-05 3.096370444359998e-05
-0.2316573858 -0.1003156006 -5.5863397182946455e-05 2.6249591893107573e-06
-0.2263359278 -0.1003156006 -3.368022920427014e-05 -2.1497770510918423e-05
-0.2210144699 -0.1003156006 -7.020524363165185e-05 -4.18585149512606e-05
-0.2156930119 -0.1003156006 -0.00011424481280731651 -6.444829904005862e-05
-0.2103715539 -0.1003156006 -0.0001742727026011397 -8.529010605155658e-05
-0.2050500959 -0.1003156006 -0.00012221328466963024 -8.429603919162028e-05
-0.1997286379 -0.1003156006 -6.50391256373999e-05 -8.166110102889642e-05
-0.19440718 -0.1003156006 6.008148049904455e-06 -8.67413920984566e-05
-0.189085722 -0.1003156006 1.208822926132705e-05 -9.713694519086686e-05
-0.183764264 -0.1003156006 1.0294605749444833e-05 -0.00011863712406307993
-0.178442806 -0.1003156006 1.0935225390785337e-05 -0.00013432870257280757
-0.173121348 -0.1003156006 1.8902968339902017e-05 -0.00013032679261461817
-0.16779989 -0.1003156006 2.8078143530621285e-05 -0.0001211613734626224
-0.1624784321 -0.1003156006 3.6218692487736015e-05 -0.00011176675137095935
-0.1571569741 -0.1003156006 5.437809960103132e-05 -0.00011090063938108459
-0.1518355161 -0.1003156006 7.658346398623792e-05 -0.00011692900000394414
-0.1465140581 -0.1003156006 9.878989600608079e-05 -0.00012426359995819768
-0.1411926001 -0.1003156006 0.00012178803611588254 -0.00013086965971604065
-0.1358711421 -0.1003156006 0.0001439535346141029 -0.0001386463172356358
-0.1305496842 -0.1003156006 0.00016606464698826036 -0.0001464291223263887
-0.1252282262 -0.1003156006 0.00018714966692350024 -0.00015257086212276306
-0.1199067682 -0.1003156006 0.00019900867720322313 -0.00014418644507758287
-0.1145853102 -0.1003156006 0.00020769101438747767 -0.0001323140695048081
-0.1092638522 -0.1003156006 0.00021503713505801862 -0.00011916717763197516
-0.1039423943 -0.1003156006 0.00022316430738326617 -0.00010643934898162157
-0.09862093627 -0.1003156006 0.00022625443209839318 -9.476894259447707e-05
-0.09329947084 -0.1003156006 0.0002289843786244627 -8.3321537965686e-05
-0.08797801286 -0.1003156006 0.0002317325594682907 -7.187735853900554e-05
-0.08265655488 -0.1003156006 0.00023515165356072305 -6.060759507435828e-05
-0.0773350969 -0.1003156006 0.0002452293638888353 -5.87968573488827e-05
-0.07201363891 -0.1003156006 0.00025530176512063383 -5.7058497184821194e-05
-0.06669218093 -0.1003156006 0.00026553806466656616 -5.531476167027367e-05
-0.06137072667 -0.1003156006 0.00027643133451506327 -5.445585823833252e-05
-0.05604926869 -0.1003156006 0.00029192504682832383 -5.4020281747813734e-05
-0.05072781071 -0.1003156006 0.000307926876911986 -5.3878316640805916e-05
-0.045406349 -0.1003156006 0.00032408619734129143 -5.39168663673093e-05
-0.04008489102 -0.1003156006 0.0003400896062032616 -5.364699233700724e-05
-0.03476343304 -0.1003156006 0.0003532778207992731 -5.0489545812187145e-05
-0.02944197692 -0.1003156006 0.0003600720144521717 -4.204064746114083e-05
-0.02412051894 -0.1003156006 0.0003665238250657836 -3.3444703540750614e-05
-0.01879905909 -0.1003156006 0.000372598608861859 -2.4637478038667812e-05
-0.01347760204 -0.1003156006 0.0003792806376209151 -1.6061578992906107e-05
-0.00815614406 -0.1003156006 0.0003852642539163145 -6.7536914759665645e-06
-0.00283468538 -0.1003156006 0.0003911071683810184 2.724688376262945e-06
0.002486772602 -0.1003156006 0.0003975774464464286 1.1889106113662713e-05
0.007808230817 -0.1003156006 0.0004038286592033601 2.1052590355819607e-05
0.0131296888 -0.1003156006 0.00040985208404644867 3.047298108966381e-05
0.01845114678 -0.1003156006 0.00041728495507602323 4.1558014032111374e-05
0.02377260476 -0.1003156006 0.0004258265190991607 5.364940361432386e-05
0.02909406275 -0.1003156006 0.0004346438603935831 6.599834876797162e-05
0.03441552073 -0.1003156006 0.00044361089436979127 7.834574603279255e-05
0.03973697871 -0.1003156006 0.0004521888293163606 9.047616469487789e-05
0.04505843669 -0.1003156006 0.0004584570964032604 0.00010280411817141172
0.05037989467 -0.1003156006 0.0004603102955085556 0.00011551704488824271
0.05570135266 -0.1003156006 0.00046205911549711357 0.00012856621115716612
0.06102281436 -0.1003156006 0.00046360049108680115 0.00014170794447495707
0.06634426862 -0.1003156006 0.0004654381032404615 0.000154544260938592
0.0716657266 -0.1003156006 0.00046733832032689986 0.00016718092743230409
0.07698718458 -0.1003156006 0.0004656952918548719 0.00017283979065693672
0.08230864257 -0.1003156006 0.0004638933279366033 0.00017778899930227972
0.08763010055 -0.1003156006 0.0004618070913329649 0.00018257795766405408
0.09295155853 -0.1003156006 0.0004597839746506435 0.00018750736543642822
0.09827301651 -0.1003156006 0.0004581680309089999 0.0001925429785323813
0.1035944745 -0.1003156006 0.0004588850386024664 0.00019672312164330062
0.1089159325 -0.1003156006 0.0004649421451367616 0.00019895157637757634
0.1142373979 -0.1003156006 0.0004708723717603681 0.0002011773415843834
0.1195588559 -0.1003156006 0.00047688449801906306 0.00020399549080580821
0.1248803139 -0.1003156006 0.0004827792334897299 0.00020656237364254112
0.1302017719 -0.1003156006 0.0004886814989872735 0.00020904130624191408
0.1355232298 -0.1003156006 0.00049865324163733 0.00021567563297063573
0.1408446878 -0.1003156006 0.0005113965356948883 0.00022515530365149644
0.1461661458 -0.1003156006 0.0005235012198630777 0.00023465343080946016
0.1514876038 -0.1003156006 0.0005354222582441985 0.0002441544705073516
0.1568090618 -0.1003156006 0.0005473861276112949 0.0002536510765584235
0.1621305197 -0.1003156006 0.0005595408185205912 0.00026316875419828443
0.1674519777 -0.1003156006 0.0005674057062166976 0.0002781374162579873
0.1727734357 -0.1003156006 0.0005734894958413933 0.000295301560050413
0.1780948937 -0.1003156006 0.0005795139058815479 0.0003124697940522055
0.1834163517 -0.1003156006 0.0005855131403914694 0.00032962887262760033
0.1887378097 -0.1003156006 0.0005917198250367558 0.0003465772877672547
0.1940592676 -0.1003156006 0.000597526490181272 0.00036305783379252045
0.1993807256 -0.1003156006 0.000596567278339812 0.00037924709434762307
0.2047021836 -0.1003156006 0.0005934121195805862 0.00039513379563953867
0.2100236416 -0.1003156006 0.0005901870741172963 0.00041107623322306707
0.2153450996 -0.1003156006 0.0005876908159372048 0.0004265936972070627
0.2206665576 -0.1003156006 0.0005848100473251671 0.0004421870711623472
0.2259880155 -0.1003156006 0.0005820426532156449 0.0004577880363465775
0.2313094735 -0.1003156006 0.0005785520397077653 0.0004710627077703867
0.2366309315 -0.1003156006 0.0005749597550075681 0.0004835587815014619
0.2419523895 -0.1003156006 0.0005712724718651053 0.0004959924868381782
0.2472738475 -0.1003156006 0.0005677053299571873 0.0005085201118680501
0.2525953054 -0.1003156006 0.0005637441651324414 0.0005211912436548565
0.2579167783 -0.1003156006 0.0005600386407477265 0.0005337829807309114
0.2632382214 -0.1003156006 0.000553599952555048 0.000547137456814267
0.2685596943 -0.1003156006 0.0005465283999468325 0.000560650622227444
0.2738811374 -0.1003156006 0.0005392039267365581 0.0005745361615129951
0.2792026103 -0.1003156006 0.0005320811479529275 0.0005881111508436485
0.2845240533 -0.1003156006 0.0005252100984241508 0.0006012282085736228
0.2898455262 -0.1003156006 0.000518353671271576 0.0006143497077863125
0.2951669693 -0.1003156006 0.0005068244621922027 0.0006218135308534282
0.3004884422 -0.1003156006 0.000494544309632269 0.000628174098388626
0.3058098853 -0.1003156006 0.0004830247147636824 0.000634660096547438
0.3111313581 -0.1003156006 0.00047163364303515936 0.0006411313042487539
0.3164528012 -0.1003156006 0.00045997004898043047 0.0006476215000635386
0.3217742741 -0.1003156006 0.00044913206870986536 0.0006539639135831384
0.3270957172 -0.1003156006 0.00044097803551375526 0.0006543913821399065
0.3324171901 -0.1003156006 0.00043310750299179645 0.0006547272331909759
0.3377386332 -0.1003156006 0.00042518530471351393 0.0006550623329119515
0.343060106 -0.1003156006 0.00041719514607058844 0.0006554008027681699
0.3483815491 -0.1003156006 0.000409861951219273 0.0006562450055508549
0.353703022 -0.1003156006 0.0004031821569272311 0.0006571817924146663
0.3590244651 -0.1003156006 0.00039902874541609105 0.0006579222324018469
0.364345938 -0.1003156006 0.00039487679876050994 0.0006586692867021847
0.369667381 -0.1003156006 0.0003907034151183623 0.0006596425506633201
0.3749888539 -0.1003156006 0.0003867788020585617 0.0006605677278483646
0.380310297 -0.1003156006 0.00038263682325534866 0.0006615034353722509
0.3856317699 -0.1003156006 0.0003808855036900275 0.0006616121066387519
0.390953213 -0.1003156006 0.0003798836315037022 0.0006619393028231409
0.3962746859 -0.1003156006 0.00037865075026668755 0.0006624474649413589
0.4015961289 -0.1003156006 0.0003776350666218927 0.0006629617669712984
0.4069176018 -0.1003156006 0.0003763458799304076 0.000663342926040514
0.4122390449 -0.1003156006 0.00037692738955736335 0.000665769954154875
0.4175605178 -0.1003156006 0.0003803204355291622 0.0006702869073628875
0.4228819609 -0.1003156006 0.00038365234145237707 0.000674779062003944
0.4282034338 -0.1003156006 0.00038715651737970146 0.0006792822568342245
0.4335248768 -0.1003156006 0.00038953670578983836 0.0006840367816848901
0.4388463497 -0.1003156006 0.0003916371631532172 0.000691352111672604
0.4441677928 -0.1003156006 0.0003925637029891228 0.000705037623358912
0.4494892657 -0.1003156006 0.0003936622852344556 0.000718534455417651
0.4548107088 -0.1003156006 0.0003938178407336036 0.0007313432746254609
0.4601321816 -0.1003156006 0.00039425193503965397 0.0007446096499948469
0.4654536247 -0.1003156006 0.0003907506985859547 0.0007601480422029714
0.4707750976 -0.1003156006 0.0003807608668785518 0.000778238198173989
0.4760965407 -0.1003156006 0.0003705410746721606 0.0007951455265439332
0.4814180136 -0.1003156006 0.00036041301214769644 0.0008120619094575373
0.4867394567 -0.1003156006 0.00035044666469090163 0.000829020815258475
0.4920609295 -0.1003156006 0.00033194070911123433 0.0008439786794762205
0.4973823726 -0.1003156006 0.00031095137568717474 0.0008578948739686765
0.5027038455 -0.1003156006 0.00028987533870755597 0.0008717259876774012
0.5080252886 -0.1003156006 0.0002685902381387148 0.0008855257956970453
0.5133467317 -0.1003156006 0.0002457012130964942 0.0008948113386258578
0.5186682343 -0.1003156006 0.0002178248470794552 0.000900834673866686
0.5239896774 -0.1003156006 0.00018947757609779367 0.0009069639963863401
0.5293111205 -0.1003156006 0.00016193468296901996 0.0009127743537183724
0.5346325636 -0.1003156006 0.00013375496176511507 0.0009145971511786593
0.5399540663 -0.1003156006 0.00010318828901225667 0.000912137515178701
0.5452755094 -0.1003156006 7.165413284114722e-05 0.0009097357930295059
0.5505969524 -0.1003156006 4.166305826157949e-05 0.0009071818210311861
0.5559183955 -0.1003156006 1.1657833740551984e-05 0.0008991344463973197
0.5612398982 -0.1003156006 -2.0333740314944184e-05 0.0008890644439492773
0.5665613413 -0.1003156006 -5.166011306995251e-05 0.0008790843292183851
0.5718827844 -0.1003156006 -8.18321047826544e-05 0.0008663833940599017
0.5772042274 -0.1003156006 -0.00011255461790503139 0.0008493326097193516
0.5825257301 -0.1003156006 -0.00014389065150271406 0.0008321081355742079
0.5878471732 -0.1003156006 -0.00017316989614025408 0.0008128785785149752
0.5931686163 -0.1003156006 -0.0002029893630027001 0.0007893128796995899
0.5984900594 -0.1003156006 -0.00023311520061714268 0.0007662297932913991
0.6038115621 -0.1003156006 -0.0002619324858696602 0.0007391432306950348
0.6091330051 -0.1003156006 -0.00029046701991740224 0.0007114058637286343
0.6144544482 -0.1003156006 -0.00031863107936243074 0.0006803297885479823
0.6197758913 -0.1003156006 -0.00034486724022351735 0.0006477517460419709
0.625097394 -0.1003156006 -0.00037039681062936094 0.000612958285792642
0.6304188371 -0.1003156006 -0.00039456596132245414 0.0005750762246201198
0.6357402802 -0.1003156006 -0.00041643212363742435 0.0005367137532840977
0.6410617828 -0.1003156006 -0.0004375952619099952 0.0004944175009108903
0.6463832259 -0.1003156006 -0.0004575095390358616 0.0004514522329717987
0.651704669 -0.1003156006 -0.0004770167599298432 0.00040663323902631013
0.6570261121 -0.1003156006 -0.0004934521804883194 0.0003602293216167121
0.6623476148 -0.1003156006 -0.0005094253011557133 0.0003110960017862859
0.6676690578 -0.1003156006 -0.0005240298581297604 0.00026116241180367867
0.6729905009 -0.1003156006 -0.0005370177532068059 0.0002082008014678675
0.678311944 -0.1003156006 -0.0005482647550747706 0.00015436334025091872
0.6836334467 -0.1003156006 -0.0005591998346363398 9.84952732147317e-05
0.6889548898 -0.1003156006 -0.0005694134344184363 3.904808468338274e-05
0.6942763329 -0.1003156006 -0.0005776395191255185 -2.2592603458867674e-05
0.6995977759 -0.1003156006 -0.0005850847247689785 -8.678713942581399e-05
0.7049192786 -0.1003156006 -0.0005917292305919506 -0.00015410913078838697
0.7102407217 -0.1003156006 -0.000598285009382636 -0.00022675083796215773
0.7155621648 -0.1003156006 -0.000601693139139334 -0.00030388475406305915
0.7208836079 -0.1003156006 -0.0006026300842796983 -0.00038601625925829917
0.7262051105 -0.1003156006 -0.0006017589596273464 -0.0004748698380178575
0.7315265536 -0.1003156006 -0.0005960378741900981 -0.0005706934471348245
0.7368479967 -0.1003156006 -0.0005857094611799494 -0.0006775038314492546
0.7421694398 -0.1003156006 -0.0005701177387112778 -0.0007916682129840967
0.7474909425 -0.1003156006 -0.0005476827930012729 -0.0009091051063036151
0.7528123856 -0.1003156006 -0.0005108322221839673 -0.0010397791776829166
0.7581338286 -0.1003156006 -0.0004645431227763227 -0.0011806541664984033
-0.3008363545 -0.09699654579 -8.752279615594355e-05 0.0002781187014061543
-0.2955148816 -0.09699654579 -0.00010866231122209292 0.00027081416231023163
-0.2901934385 -0.09699654579 -0.00014363233217391742 0.0002525149067416435
-0.2848719656 -0.09699654579 -0.00018075050809089418 0.00022148651842848286
-0.2795505226 -0.09699654579 -0.00022589887674043122 0.00018627651833432024
-0.2742290497 -0.09699654579 -0.00027515960236273643 0.0001362063872630905
-0.2689076066 -0.09699654579 -0.0003345090120428311 6.418846429723765e-05
-0.2635861337 -0.09699654579 -0.0003722892403705207 5.7740350192124776e-06
-0.2582646906 -0.09699654579 -0.00035060515632986863 1.1632714211052446e-05
-0.2529432178 -0.09699654579 -0.0002936249184076811 2.4507273120536107e-05
-0.2476217598 -0.09699654579 -0.00020824818083970065 4.9212070900086355e-05
-0.2423003018 -0.09699654579 -0.00012876745662948437 5.8465598918762285e-05
-0.2369788438 -0.09699654579 -9.876628925558415e-05 2.7058017528108672e-05
-0.2316573858 -0.09699654579 -6.717051650133592e-05 1.2089703646806446e-06
-0.2263359278 -0.09699654579 -2.8590588423416708e-05 -3.202013916340229e-05
-0.2210144699 -0.09699654579 -5.808839518028306e-05 -5.779403010365431e-05
-0.2156930119 -0.09699654579 -0.00011644655359122613 -7.852135225487104e-05
-0.2103715539 -0.09699654579 -0.00018741280654074763 -9.251193077242422e-05
-0.2050500959 -0.09699654579 -0.00016131627407548746 -9.511295929997837e-05
-0.1997286379 -0.09699654579 -8.975918446815728e-05 -0.00010052681369612892
-0.19440718 -0.09699654579 -1.075512785462921e-05 -0.00010555656215838591
-0.189085722 -0.09699654579 1.706183153127048e-05 -0.00011321225634565552
-0.183764264 -0.09699654579 1.893074180613411e-05 -0.00012241758682920352
-0.178442806 -0.09699654579 1.833655633216706e-05 -0.0001375087611707848
-0.173121348 -0.09699654579 2.5171802041012245e-05 -0.0001351696742309701
-0.16779989 -0.09699654579 3.2894109983316834e-05 -0.00012499388410366306
-0.1624784321 -0.09699654579 3.979676886510151e-05 -0.00011135327319008934
-0.1571569741 -0.09699654579 6.304042920123948e-05 -0.0001157543886609211
-0.1518355161 -0.09699654579 8.653065367622975e-05 -0.0001255177647029406
-0.1465140581 -0.09699654579 0.00011157525118098533 -0.00013622437382685684
-0.1411926001 -0.09699654579 0.0001358167673244205 -0.00014710352375092267
-0.1358711421 -0.09699654579 0.00015666984630168069 -0.00015292853281624616
-0.1305496842 -0.09699654579 0.00017697312825722973 -0.0001581400802452605
-0.1252282262 -0.09699654579 0.00019679347764177616 -0.0001629837646825842
-0.1199067682 -0.09699654579 0.00020644162361679194 -0.00015171888576211972
-0.1145853102 -0.09699654579 0.000213353225770911 -0.00013784707694984558
-0.1092638522 -0.09699654579 0.00021969430659452658 -0.0001234768420125059
-0.1039423943 -0.09699654579 0.0002257811015846462 -0.00010818006598943809
-0.09862093627 -0.09699654579 0.0002279675571842832 -9.683125388336661e-05
-0.09329947084 -0.09699654579 0.00022966041539443624 -8.558334580475112e-05
-0.08797801286 -0.09699654579 0.00023105908539141102 -7.450393097996845e-05
-0.08265655488 -0.09699654579 0.0002335168042907429 -6.351862430052334e-05
-0.0773350969 -0.09699654579 0.0002446330465447032 -6.282143337108541e-05
-0.07201363891 -0.09699654579 0.0002565539248312481 -6.289898529580104e-05
-0.06669218093 -0.09699654579 0.0002685553393796423 -6.295022559748926e-05
-0.06137072667 -0.09699654579 0.0002801177425604766 -6.308559545761437e-05
-0.05604926869 -0.09699654579 0.0002953411776288926 -6.231407636089059e-05
-0.05072781071 -0.09699654579 0.00031090452067541904 -6.17004939701586e-05
-0.045406349 -0.09699654579 0.0003265609196391157 -6.109132246268488e-05
-0.04008489102 -0.09699654579 0.0003421486584870535 -6.0195700041474525e-05
-0.03476343304 -0.09699654579 0.00035443599067917406 -5.627841217416813e-05
-0.02944197692 -0.09699654579 0.00035970029008701784 -4.7093093413343634e-05
-0.02412051894 -0.09699654579 0.0003650062043322654 -3.7950284202534764e-05
-0.01879905909 -0.09699654579 0.0003702965285034353 -2.8769687250091998e-05
-0.01347760204 -0.09699654579 0.0003753795735910858 -1.9503013809247893e-05
-0.00815614406 -0.09699654579 0.00038150196253472685 -1.0288478555364638e-05
-0.00283468538 -0.09699654579 0.00038832778758036843 -1.4860752358233968e-06
0.002486772602 -0.09699654579 0.00039550984409974653 7.1388143571414575e-06
0.007808230817 -0.09699654579 0.0004024025222556105 1.574491161891687e-05
0.0131296888 -0.09699654579 0.00040935408294209494 2.446821270589381e-05
0.01845114678 -0.09699654579 0.0004178444004565255 3.55943455282305e-05
0.02377260476 -0.09699654579 0.00042707905220509823 4.8198773599917634e-05
0.02909406275 -0.09699654579 0.0004367510930238498 6.094230776048397e-05
0.03441552073 -0.09699654579 0.00044665963730855854 7.371813301262122e-05
0.03973697871 -0.09699654579 0.0004560169054616177 8.632298272202227e-05
0.04505843669 -0.09699654579 0.0004624966284724603 9.937917208162315e-05
0.05037989467 -0.09699654579 0.00046410459015495687 0.00011309360855565529
0.05570135266 -0.09699654579 0.00046535206309670813 0.0001268850898774417
0.06102281436 -0.09699654579 0.0004667262676418594 0.00014098139486260538
0.06634426862 -0.09699654579 0.00046820961915811316 0.0001546116189283828
0.0716657266 -0.09699654579 0.0004694734908939128 0.00016825282997650641
0.07698718458 -0.09699654579 0.00046674844881288243 0.00017340913162232607
0.08230864257 -0.09699654579 0.0004639104180025878 0.00017792608682501754
0.08763010055 -0.09699654579 0.00046129118002228886 0.0001825100448720989
0.09295155853 -0.09699654579 0.0004584950335206792 0.0001870757307529039
0.09827301651 -0.09699654579 0.00045597616124559655 0.00019164722664383735
0.1035944745 -0.09699654579 0.0004565079616570352 0.00019511346063547926
0.1089159325 -0.09699654579 0.00046318384651531644 0.0001963505791021277
0.1142373979 -0.09699654579 0.00046966994594780867 0.0001978458682977372
0.1195588559 -0.09699654579 0.0004757562517421335 0.00019961734528212288
0.1248803139 -0.09699654579 0.0004818409354929976 0.00020138396020341647
0.1302017719 -0.09699654579 0.0004882551144300258 0.00020290506761904483
0.1355232298 -0.09699654579 0.0004995275959671738 0.00020926635061826906
0.1408446878 -0.09699654579 0.0005129045299142252 0.00021865762177142827
0.1461661458 -0.09699654579 0.0005262323893486121 0.00022816131842336664
0.1514876038 -0.09699654579 0.0005395621641850242 0.00023768467126580742
0.1568090618 -0.09699654579 0.0005529039061207648 0.00024720577713715944
0.1621305197 -0.09699654579 0.0005657915188902369 0.0002566754718522264
0.1674519777 -0.09699654579 0.0005744927250443321 0.000272575358399622
0.1727734357 -0.09699654579 0.0005815495030553982 0.0002905875175745287
0.1780948937 -0.09699654579 0.0005888010342819964 0.00030899253191767274
0.1834163517 -0.09699654579 0.0005961674460503703 0.0003272538594170964
0.1887378097 -0.09699654579 0.0006028889696632747 0.000344820676980408
0.1940592676 -0.09699654579 0.0006095421040843537 0.0003623891279392599
0.1993807256 -0.09699654579 0.0006083521119257333 0.00037929851107933356
0.2047021836 -0.09699654579 0.0006053165924193889 0.0003958369506551633
0.2100236416 -0.09699654579 0.0006024294892820507 0.00041210827198930093
0.2153450996 -0.09699654579 0.0005992624898223078 0.00042825028357053037
0.2206665576 -0.09699654579 0.0005960699903478535 0.0004443971570283466
0.2259880155 -0.09699654579 0.0005931480110409356 0.0004605684125091893
0.2313094735 -0.09699654579 0.0005899382655762516 0.0004740384248683285
0.2366309315 -0.09699654579 0.0005861893228177076 0.00048666540044611215
0.2419523895 -0.09699654579 0.0005826533692484787 0.0004992903892383078
0.2472738475 -0.09699654579 0.0005791999986453837 0.0005119024802267096
0.2525953054 -0.09699654579 0.0005756829612271111 0.0005244904977746368
0.2579167783 -0.09699654579 0.0005720274568538313 0.0005369807908947905
0.2632382214 -0.09699654579 0.0005651678529130915 0.0005509482669476879
0.2685596943 -0.09699654579 0.0005575027873185185 0.0005652611520620311
0.2738811374 -0.09699654579 0.000550083610538586 0.0005791573494315353
0.2792026103 -0.09699654579 0.0005429328343380312 0.0005928337482667224
0.2845240533 -0.09699654579 0.0005354855988966012 0.0006064179371150047
0.2898455262 -0.09699654579 0.0005282038566295759 0.0006203307241228157
0.2951669693 -0.09699654579 0.0005155617722373808 0.0006273187372677789
0.3004884422 -0.09699654579 0.0005027101537722927 0.0006337078096189466
0.3058098853 -0.09699654579 0.0004895611446089258 0.0006401866206666179
0.3111313581 -0.09699654579 0.0004767031336735897 0.0006466556896158055
0.3164528012 -0.09699654579 0.0004641594944920799 0.0006530119117054393
0.3217742741 -0.09699654579 0.0004525852978789798 0.0006592828443368058
0.3270957172 -0.09699654579 0.00044429718376913014 0.0006592492131758542
0.3324171901 -0.09699654579 0.00043588285564091843 0.000659233433909736
0.3377386332 -0.09699654579 0.00042789899282881695 0.0006594217520690235
0.343060106 -0.09699654579 0.00041987444663736363 0.0006596564767251577
0.3483815491 -0.09699654579 0.0004117823054925677 0.0006598901263010217
0.353703022 -0.09699654579 0.0004048545705634093 0.0006602967626171628
0.3590244651 -0.09699654579 0.0004003989632094884 0.0006607651396970149
0.364345938 -0.09699654579 0.00039612638037850415 0.0006613574906698081
0.369667381 -0.09699654579 0.00039170291065214474 0.0006619779193813803
0.3749888539 -0.09699654579 0.00038730626140206863 0.0006625674521774744
0.380310297 -0.09699654579 0.0003831141096761644 0.00066327124000033
0.3856317699 -0.09699654579 0.00038147136261940286 0.000663343635988255
0.390953213 -0.09699654579 0.00038031336240742624 0.0006628470576377416
0.3962746859 -0.09699654579 0.0003792721043674589 0.0006622393820991893
0.4015961289 -0.09699654579 0.00037837699440467 0.0006619570002712084
0.4069176018 -0.09699654579 0.00037716951947976385 0.00066211158106914
0.4122390449 -0.09699654579 0.0003785547914673317 0.0006641574278765308
0.4175605178 -0.09699654579 0.0003830290801235005 0.0006684327963416554
0.4228819609 -0.09699654579 0.00038699241546551953 0.00067293679304645
0.4282034338 -0.09699654579 0.00039038909331936145 0.0006776109381562748
0.4335248768 -0.09699654579 0.00039419887691563696 0.0006821928201024555
0.4388463497 -0.09699654579 0.0003979250626467086 0.0006900594529630024
0.4441677928 -0.09699654579 0.00039988595067449843 0.0007045248415276396
0.4494892657 -0.09699654579 0.0004017084942942168 0.0007189199415006141
0.4548107088 -0.09699654579 0.00040364569380934537 0.0007331831109262949
0.4601321816 -0.09699654579 0.0004053246554253417 0.0007472157669767357
0.4654536247 -0.09699654579 0.00040150795886514343 0.0007628938398171216
0.4707750976 -0.09699654579 0.0003917365446312985 0.0007819669006371169
0.4760965407 -0.09699654579 0.00038180798011083804 0.0008020836583339971
0.4814180136 -0.09699654579 0.0003718571637597281 0.0008211913579151773
0.4867394567 -0.09699654579 0.0003618493214338663 0.0008393126294643601
0.4920609295 -0.09699654579 0.0003419687156320748 0.0008554019462240856
0.4973823726 -0.09699654579 0.0003197880416069461 0.0008708452919762436
0.5027038455 -0.09699654579 0.0002985338568812141 0.0008851500587140241
0.5080252886 -0.09699654579 0.00027646279786544705 0.0009000167324684753
0.5133467317 -0.09699654579 0.0002509838349971504 0.0009114004342501295
0.5186682343 -0.09699654579 0.00022166423938674808 0.000918136506606457
0.5239896774 -0.09699654579 0.00019326845695357602 0.0009241451475322588
0.5293111205 -0.09699654579 0.00016496597541763302 0.0009304512269858557
0.5346325636 -0.09699654579 0.0001339210387758229 0.0009334832593075295
0.5399540663 -0.09699654579 0.00010219479598607527 0.0009311045671243028
0.5452755094 -0.09699654579 7.07181520848064e-05 0.0009286702659881433
0.5505969524 -0.09699654579 3.923875158874097e-05 0.0009262738980796154
0.5559183955 -0.09699654579 6.561931225339966e-06 0.0009183497492748643
0.5612398982 -0.09699654579 -2.5492601979865074e-05 0.000908281178648782
0.5665613413 -0.09699654579 -5.726445392673649e-05 0.0008982226592084998
0.5718827844 -0.09699654579 -9.023909612775338e-05 0.0008853892721054281
0.5772042274 -0.09699654579 -0.00012164686943898501 0.000868315938551924
0.5825257301 -0.09699654579 -0.0001528864962842428 0.0008512537851252483
0.5878471732 -0.09699654579 -0.00018512044372522393 0.0008315464363277623
0.5931686163 -0.09699654579 -0.00021563586653997155 0.0008082859783462509
0.5984900594 -0.09699654579 -0.00024671057328118324 0.0007845771983676683
0.6038115621 -0.09699654579 -0.0002768373976803759 0.0007573685550487304
0.6091330051 -0.09699654579 -0.0003065328539996277 0.0007281840147258167
0.6144544482 -0.09699654579 -0.00033550208717658816 0.0006977026545246091
0.6197758913 -0.09699654579 -0.0003630015272314153 0.0006634932611225638
0.625097394 -0.09699654579 -0.00038934320582689156 0.0006288560250983309
0.6304188371 -0.09699654579 -0.0004142461074627095 0.0005897852280286556
0.6357402802 -0.09699654579 -0.0004393149579896861 0.0005497722403595312
0.6410617828 -0.09699654579 -0.00046137414294839706 0.0005086717012627023
0.6463832259 -0.09699654579 -0.0004830457387426782 0.0004639867996945366
0.651704669 -0.09699654579 -0.0005031944471381359 0.0004184294761946003
0.6570261121 -0.09699654579 -0.0005208871235711714 0.0003702616312311766
0.6623476148 -0.09699654579 -0.0005371625646701239 0.0003212171050040788
0.6676690578 -0.09699654579 -0.0005527127230510182 0.00026867204953211476
0.6729905009 -0.09699654579 -0.0005663729634056582 0.00021585374052137592
0.678311944 -0.09699654579 -0.0005795779585720884 0.00016118958505020523
0.6836334467 -0.09699654579 -0.0005921607878643894 0.00010458063741165093
0.6889548898 -0.09699654579 -0.0006029102481031622 4.596402924308806e-05
0.6942763329 -0.09699654579 -0.0006134184489681849 -1.5915781459893803e-05
0.6995977759 -0.09699654579 -0.0006242866999048222 -8.115695243917652e-05
0.7049192786 -0.09699654579 -0.0006333785901490226 -0.00014897115598404287
0.7102407217 -0.09699654579 -0.0006410890194693331 -0.00022145828573910843
0.7155621648 -0.09699654579 -0.0006478680077450256 -0.00030023981995987224
0.7208836079 -0.09699654579 -0.0006545983613773943 -0.00038548694971743646
0.7262051105 -0.09699654579 -0.0006581540081798253 -0.00047695451004229846
0.7315265536 -0.09699654579 -0.0006596907641762065 -0.0005744407451447977
0.7368479967 -0.09699654579 -0.0006554908545253336 -0.0006824065072965198
0.7421694398 -0.09699654579 -0.0006442959348270839 -0.0008005031728669703
0.7474909425 -0.09699654579 -0.0006273574901849939 -0.0009275850670377463
0.7528123856 -0.09699654579 -0.0005990899422267956 -0.0010654348624478595
0.7581338286 -0.09699654579 -0.0005561095690533853 -0.0012109703936367482
-0.3008363545 -0.09367749095 -9.80993329119255e-05 0.0002990510020785506
-0.2955148816 -0.09367749095 -0.00012019419803796925 0.00029504276416586993
-0.2901934385 -0.09367749095 -0.00015466566056706883 0.00028523138639767286
-0.2848719656 -0.09367749095 -0.00019878220994540613 0.0002588814785227982
-0.2795505226 -0.09367749095 -0.00024235645078553604 0.00022263400126987842
-0.2742290497 -0.09367749095 -0.00030436907886229714 0.00016687290275127481
-0.2689076066 -0.09367749095 -0.00036578793119146054 9.871159792302432e-05
-0.2635861337 -0.09367749095 -0.0004357094826421818 2.018780307776718e-06
-0.2582646906 -0.09367749095 -0.0004169813356022798 -1.6475071751487544e-05
-0.2529432178 -0.09367749095 -0.00036629864931669366 -9.534512140669251e-06