VARIABLES = X,Y,phix,phiy
ZONE I=200,J=200,F=POINT 
-0.3008363545 -0.1003156006 0.0009775696559324617 0.00041449026983091634
-0.2955148816 -0.1003156006 0.0009590294456487892 0.0004070267945471967
-0.2901934385 -0.1003156006 0.0009572289391930231 0.0004032499294825556
-0.2848719656 -0.1003156006 0.0009582421463905671 0.00039569605905680086
-0.2795505226 -0.1003156006 0.0009586564531604308 0.0003906993805627675
-0.2742290497 -0.1003156006 0.0009607616329593396 0.0003927989496536938
-0.2689076066 -0.1003156006 0.0009594773901258033 0.00038931122946786315
-0.2635861337 -0.1003156006 0.000943399474411249 0.00038295741203599464
-0.2582646906 -0.1003156006 0.0009335971683488122 0.00038720325999691855
-0.2529432178 -0.1003156006 0.0009260449854623811 0.00039958030091819376
-0.2476217598 -0.1003156006 0.0009204197039062185 0.00040710811226585524
-0.2423003018 -0.1003156006 0.0009005791533184893 0.0003907212508308582
-0.2369788438 -0.1003156006 0.0008742189244345064 0.00036261245966676586
-0.2316573858 -0.1003156006 0.0008451594851383847 0.00032805766444518223
-0.2263359278 -0.1003156006 0.0008137554265937018 0.00028742617805230144
-0.2210144699 -0.1003156006 0.0008196862058154408 0.00024685187782684845
-0.2156930119 -0.1003156006 0.0008279156174649903 0.00020612952153251752
-0.2103715539 -0.1003156006 0.0008354353665601829 0.00016239226623183234
-0.2050500959 -0.1003156006 0.0008510053441537024 0.0001412277997448684
-0.1997286379 -0.1003156006 0.0008700380207187384 0.0001305144693383707
-0.19440718 -0.1003156006 0.0008920067628247928 0.00011959629194667155
-0.189085722 -0.1003156006 0.0008992619391972023 0.00010890834228393585
-0.183764264 -0.1003156006 0.0009042292706292094 0.00010545784872718496
-0.178442806 -0.1003156006 0.0009104816000300549 9.87892446229937e-05
-0.173121348 -0.1003156006 0.0009207859275058989 8.986030806987192e-05
-0.16779989 -0.1003156006 0.0009354409902148631 8.26069438866546e-05
-0.1624784321 -0.1003156006 0.0009478665891475035 8.055997440979841e-05
-0.1571569741 -0.1003156006 0.0009583973425710917 7.362518826739777e-05
-0.1518355161 -0.1003156006 0.000971623177989685 6.621689581718563e-05
-0.1465140581 -0.1003156006 0.0009844055392075593 5.807860453817713e-05
-0.1411926001 -0.1003156006 0.000998697841072544 4.81067158521583e-05
-0.1358711421 -0.1003156006 0.0010070986488104087 3.941893787693977e-05
-0.1305496842 -0.1003156006 0.0010154176776323346 3.0733227931473404e-05
-0.1252282262 -0.1003156006 0.001025743118927155 2.234815482837446e-05
-0.1199067682 -0.1003156006 0.0010404388444980582 1.6266681979942296e-05
-0.1145853102 -0.1003156006 0.0010562707363630153 1.2533408041533284e-05
-0.1092638522 -0.1003156006 0.001073377523513351 8.152409835163749e-06
-0.1039423943 -0.1003156006 0.00109013625149656 2.5904086085534332e-06
-0.09862093627 -0.1003156006 0.0011027275253718612 8.918314648281192e-06
-0.09329947084 -0.1003156006 0.0011150699345298541 1.6606521086945772e-05
-0.08797801286 -0.1003156006 0.001127345543452788 2.428477322156382e-05
-0.08265655488 -0.1003156006 0.0011394692874158315 3.185475290768477e-05
-0.0773350969 -0.1003156006 0.001136739454534153 3.689918885132821e-05
-0.07201363891 -0.1003156006 0.001133784366254331 4.158585139109809e-05
-0.06669218093 -0.1003156006 0.0011306207377698757 4.627119154670276e-05
-0.06137072667 -0.1003156006 0.0011273679343045335 5.1169833229535496e-05
-0.05604926869 -0.1003156006 0.0011308000866828286 5.03681665592488e-05
-0.05072781071 -0.1003156006 0.001135398741532348 4.9068208034668185e-05
-0.045406349 -0.1003156006 0.0011395069683438148 4.7758738010113585e-05
-0.04008489102 -0.1003156006 0.0011442866972823985 4.608930302460173e-05
-0.03476343304 -0.1003156006 0.0011491243182679255 4.626568034280492e-05
-0.02944197692 -0.1003156006 0.0011517813372936498 5.2308755833838817e-05
-0.02412051894 -0.1003156006 0.001154507109601111 5.865913599470391e-05
-0.01879905909 -0.1003156006 0.0011575648338918829 6.558103480986209e-05
-0.01347760204 -0.1003156006 0.0011603066791925742 7.186621175776716e-05
-0.00815614406 -0.1003156006 0.0011537086202298799 7.577971069062309e-05
-0.00283468538 -0.1003156006 0.001138875759244896 7.821065187562004e-05
0.002486772602 -0.1003156006 0.0011223841396887386 8.163406731592669e-05
0.007808230817 -0.1003156006 0.0011057571176270996 8.503134795463656e-05
0.0131296888 -0.1003156006 0.0010906107854263926 8.766784101711588e-05
0.01845114678 -0.1003156006 0.0010742428080704343 7.62981716543016e-05
0.02377260476 -0.1003156006 0.0010556683473157537 5.409407106993139e-05
0.02909406275 -0.1003156006 0.0010361288273098741 3.082465805793975e-05
0.03441552073 -0.1003156006 0.0010165963328502342 7.559567895630966e-06
0.03973697871 -0.1003156006 0.0009979545410045267 -1.4776130122843834e-05
0.04505843669 -0.1003156006 0.0009958365584853796 -3.8950201141546884e-05
0.05037989467 -0.1003156006 0.0010155065296809829 -6.487827768501059e-05
0.05570135266 -0.1003156006 0.001036347593531568 -9.22484835393636e-05
0.06102281436 -0.1003156006 0.0010573608583593548 -0.00011953703896723377
0.06634426862 -0.1003156006 0.0010775284043037158 -0.0001458667806387336
0.0716657266 -0.1003156006 0.0010969047543735483 -0.00017150863884266517
0.07698718458 -0.1003156006 0.0011082932973029323 -0.0001678066167071138
0.08230864257 -0.1003156006 0.0011185604726049966 -0.00016153855339932671
0.08763010055 -0.1003156006 0.0011290637542872922 -0.0001544487828111015
0.09295155853 -0.1003156006 0.0011392806365759158 -0.00014830647352164321
0.09827301651 -0.1003156006 0.001149664022953732 -0.0001426875956126959
0.1035944745 -0.1003156006 0.0011559416081902063 -0.00014489103716547224
0.1089159325 -0.1003156006 0.001149289902572972 -0.000162931505422168
0.1142373979 -0.1003156006 0.001142716829053594 -0.00018097347455672312
0.1195588559 -0.1003156006 0.001138157906634126 -0.00019808039696260686
0.1248803139 -0.1003156006 0.0011330179703756052 -0.00021569498521653495
0.1302017719 -0.1003156006 0.0011271819742865942 -0.00023327199839656847
0.1355232298 -0.1003156006 0.001141107374694469 -0.000256957626292228
0.1408446878 -0.1003156006 0.0011689930111876332 -0.0002847098733415296
0.1461661458 -0.1003156006 0.0011957375999691678 -0.00031044923684841536
0.1514876038 -0.1003156006 0.001222529297037988 -0.0003361823396730541
0.1568090618 -0.1003156006 0.001249083969134147 -0.00036192300710359337
0.1621305197 -0.1003156006 0.001275970476964185 -0.0003877357488315199
0.1674519777 -0.1003156006 0.001313015009784738 -0.00038118745667505103
0.1727734357 -0.1003156006 0.0013542920963186954 -0.0003606551434682611
0.1780948937 -0.1003156006 0.0013957040977905448 -0.0003400997350932389
0.1834163517 -0.1003156006 0.001437011539699741 -0.0003195672510141382
0.1887378097 -0.1003156006 0.001476886820770051 -0.00029960679731350683
0.1940592676 -0.1003156006 0.001514808858100821 -0.00028077858383832754
0.1993807256 -0.1003156006 0.0015230246186012245 -0.0002481310720100583
0.2047021836 -0.1003156006 0.0015212174332381641 -0.00021067758233433978
0.2100236416 -0.1003156006 0.0015193170185290243 -0.00017349405310985343
0.2153450996 -0.1003156006 0.0015169691630010163 -0.00013983408059398914
0.2206665576 -0.1003156006 0.0015149456202777918 -0.00010454392336833807
0.2259880155 -0.1003156006 0.0015131218382396098 -6.927120189013227e-05
0.2313094735 -0.1003156006 0.001477811451544543 -4.864494223516924e-05
0.2366309315 -0.1003156006 0.001435299275602288 -3.467354309636795e-05
0.2419523895 -0.1003156006 0.001393889591144505 -2.108565904916979e-05
0.2472738475 -0.1003156006 0.0013526501705202212 -7.4642482963489525e-06
0.2525953054 -0.1003156006 0.0013111141387854694 6.132439704275139e-06
0.2579167783 -0.1003156006 0.0012715869715142641 1.8139762599772197e-05
0.2632382214 -0.1003156006 0.0012340061573874856 -9.599733609286502e-06
0.2685596943 -0.1003156006 0.0011958004071084298 -4.819476999744438e-05
0.2738811374 -0.1003156006 0.0011559280093652287 -8.803148231963696e-05
0.2792026103 -0.1003156006 0.0011173387501951307 -0.0001268175999388564
0.2845240533 -0.1003156006 0.0010820767535782633 -0.00016306512138383416
0.2898455262 -0.1003156006 0.0010468632347038162 -0.00019930158135579714
0.2951669693 -0.1003156006 0.001050325044002117 -0.0002474919645580361
0.3004884422 -0.1003156006 0.0010599770215980406 -0.00029708129075732825
0.3058098853 -0.1003156006 0.0010687161421116006 -0.00034334413005121674
0.3111313581 -0.1003156006 0.001077555239809836 -0.00038958177411319304
0.3164528012 -0.1003156006 0.001086393922964745 -0.00043582100048548765
0.3217742741 -0.1003156006 0.0010956303651425197 -0.00048171582752246095
0.3270957172 -0.1003156006 0.0011245491852758872 -0.0005034109960385531
0.3324171901 -0.1003156006 0.001153463784201863 -0.0005250827278608671
0.3377386332 -0.1003156006 0.001182450479212342 -0.000546763783239911
0.343060106 -0.1003156006 0.0012113583743256595 -0.0005684474328984192
0.3483815491 -0.1003156006 0.001238540632796108 -0.0005895625039178998
0.353703022 -0.1003156006 0.0012649710713786978 -0.0006076848539425455
0.3590244651 -0.1003156006 0.0012893270164822123 -0.0006187940980634437
0.364345938 -0.1003156006 0.0013136382337973081 -0.0006299289692215595
0.369667381 -0.1003156006 0.0013364819834532457 -0.000640827682119545
0.3749888539 -0.1003156006 0.0013596548687469694 -0.0006518422107614082
0.380310297 -0.1003156006 0.0013832399192891046 -0.0006627958070850893
0.3856317699 -0.1003156006 0.0014049911625981632 -0.0006613029671867487
0.390953213 -0.1003156006 0.0014234361796197478 -0.0006580686794525981
0.3962746859 -0.1003156006 0.0014424599904274817 -0.0006545354298646487
0.4015961289 -0.1003156006 0.0014618087025609374 -0.0006511010521200314
0.4069176018 -0.1003156006 0.0014809081399304279 -0.0006478166353043602
0.4122390449 -0.1003156006 0.0014920863113855732 -0.0006448634755047918
0.4175605178 -0.1003156006 0.0014931419867888743 -0.000639211438533424
0.4228819609 -0.1003156006 0.0014935161697199344 -0.0006323253192082347
0.4282034338 -0.1003156006 0.0014942213666447489 -0.0006258080016603822
0.4335248768 -0.1003156006 0.0014953986680482404 -0.0006214489198664083
0.4388463497 -0.1003156006 0.0014940768110699573 -0.0006199361018571374
0.4441677928 -0.1003156006 0.00148393965250531 -0.0006273522837347427
0.4494892657 -0.1003156006 0.0014747393691859135 -0.0006348275774212704
0.4548107088 -0.1003156006 0.0014671013784000148 -0.0006427293936833602
0.4601321816 -0.1003156006 0.001458225524450478 -0.0006504112293673853
0.4654536247 -0.1003156006 0.0014494401094877175 -0.0006631872968330488
0.4707750976 -0.1003156006 0.0014429951800026006 -0.0006835637015934987
0.4760965407 -0.1003156006 0.0014377346273188427 -0.0007032458449292397
0.4814180136 -0.1003156006 0.0014323134573931892 -0.0007229347372007555
0.4867394567 -0.1003156006 0.0014268970086812468 -0.0007425540766598326
0.4920609295 -0.1003156006 0.0014293778204824312 -0.0007657916772585288
0.4973823726 -0.1003156006 0.0014345155200676967 -0.0007901038087596483
0.5027038455 -0.1003156006 0.0014392912959612257 -0.0008145171590867707
0.5080252886 -0.1003156006 0.0014439849808178763 -0.0008388486098061226
0.5133467317 -0.1003156006 0.0014501387285669987 -0.000858855621687439
0.5186682343 -0.1003156006 0.0014608095952875905 -0.0008750962258186141
0.5239896774 -0.1003156006 0.0014715645901693937 -0.0008913788294092855
0.5293111205 -0.1003156006 0.001481967760843992 -0.0009077420084237338
0.5346325636 -0.1003156006 0.0014880227055712322 -0.0009218005923031152
0.5399540663 -0.1003156006 0.0014910398425391459 -0.0009312472054301711
0.5452755094 -0.1003156006 0.0014947047685923572 -0.0009399931724431697
0.5505969524 -0.1003156006 0.0014975598829606697 -0.0009500457329785216
0.5559183955 -0.1003156006 0.001492669403032705 -0.000962321186552963
0.5612398982 -0.1003156006 0.0014848972704266821 -0.0009730369339528809
0.5665613413 -0.1003156006 0.0014772349943230068 -0.0009840345172958994
0.5718827844 -0.1003156006 0.001467411196206258 -0.0009994665481770307
0.5772042274 -0.1003156006 0.001452627118714382 -0.0010178217675378856
0.5825257301 -0.1003156006 0.0014372232022297577 -0.0010361686058757544
0.5878471732 -0.1003156006 0.0014218955556161413 -0.0010583251552720317
0.5931686163 -0.1003156006 0.0014027338069037888 -0.0010850490099887468
0.5984900594 -0.1003156006 0.0013831970156811602 -0.001110622047766218
0.6038115621 -0.1003156006 0.0013628028127447805 -0.0011432411773923002
0.6091330051 -0.1003156006 0.0013427253569045818 -0.001177555080926537
0.6144544482 -0.1003156006 0.001321301946840182 -0.0012161834048614957
0.6197758913 -0.1003156006 0.001300476476246501 -0.001259015465227392
0.625097394 -0.1003156006 0.001280225332717807 -0.0013046804587737366
0.6304188371 -0.1003156006 0.0012606890110533283 -0.001356287635458615
0.6357402802 -0.1003156006 0.0012429320027700743 -0.0014103400235657433
0.6410617828 -0.1003156006 0.0012250307278489 -0.001470050886577161
0.6463832259 -0.1003156006 0.0012085828671193233 -0.0015329412528219952
0.651704669 -0.1003156006 0.0011926158083536943 -0.0015995747501196566
0.6570261121 -0.1003156006 0.0011811070429550213 -0.001672446924368228
0.6623476148 -0.1003156006 0.001171757096523231 -0.001750783324155516
0.6676690578 -0.1003156006 0.001164186779501211 -0.0018333051317092684
0.6729905009 -0.1003156006 0.0011625195159658324 -0.0019232241254965082
0.678311944 -0.1003156006 0.0011654035310628237 -0.002016709836114503
0.6836334467 -0.1003156006 0.0011719940387720958 -0.002116170941314734
0.6889548898 -0.1003156006 0.0011842601612171773 -0.0022242572489828767
0.6942763329 -0.1003156006 0.00120764419559328 -0.002336466575738778
0.6995977759 -0.1003156006 0.0012385505599932932 -0.0024548952058327978
0.7049192786 -0.1003156006 0.0012758409756071553 -0.002577350182844191
0.7102407217 -0.1003156006 0.001325203402419189 -0.002707234831522033
0.7155621648 -0.1003156006 0.001389081142914485 -0.002841849021600436
0.7208836079 -0.1003156006 0.0014678071656136183 -0.002978910298793802
0.7262051105 -0.1003156006 0.0015614236994753701 -0.003120121681941238
0.7315265536 -0.1003156006 0.0016732310343789587 -0.0032632640610471076
0.7368479967 -0.1003156006 0.0018121755285850055 -0.0034083976441526605
0.7421694398 -0.1003156006 0.0019716092807666123 -0.003551542629117421
0.7474909425 -0.1003156006 0.002144985690674452 -0.003681847112431437
0.7528123856 -0.1003156006 0.0023567632079891697 -0.003807193401810235
0.7581338286 -0.1003156006 0.002593974361668023 -0.003923282557536303
-0.3008363545 -0.09699654579 0.0009744006722895356 0.00041760222607895226
-0.2955148816 -0.09699654579 0.0009625039115145666 0.00041652726157457524
-0.2901934385 -0.09699654579 0.0009439881306482438 0.00040494423459552
-0.2848719656 -0.09699654579 0.0009437900730961026 0.0003976435029626399
-0.2795505226 -0.09699654579 0.0009457964591171129 0.00039709381448109146
-0.2742290497 -0.09699654579 0.0009464088516071953 0.0003957186696403586
-0.2689076066 -0.09699654579 0.0009449754002059659 0.0003918995864449977
-0.2635861337 -0.09699654579 0.0009298421696486407 0.00038996194267432275
-0.2582646906 -0.09699654579 0.0009222418572669769 0.0003966003038540805
-0.2529432178 -0.09699654579 0.0009138891594290112 0.0004062069148122115
-0.2476217598 -0.09699654579 0.0009125515071535593 0.0004134982699205565
-0.2423003018 -0.09699654579 0.0008935539131673699 0.0004035588975113482
-0.2369788438 -0.09699654579 0.0008647098559243518 0.0003721183381609374
-0.2316573858 -0.09699654579 0.0008341972048214107 0.0003358686950717446
-0.2263359278 -0.09699654579 0.00080193453024403 0.00029649751570099146
-0.2210144699 -0.09699654579 0.0008000232463334335 0.00025303062466341004
-0.2156930119 -0.09699654579 0.000807737015792086 0.000206273102411295
-0.2103715539 -0.09699654579 0.0008191340317957277 0.00016045874827074353
-0.2050500959 -0.09699654579 0.0008342084731851691 0.00013653638495417884
-0.1997286379 -0.09699654579 0.0008564231531775728 0.0001255653457617573
-0.19440718 -0.09699654579 0.0008790654824591111 0.00011073502561449105
-0.189085722 -0.09699654579 0.0008885963595724648 9.781972569167363e-05
-0.183764264 -0.09699654579 0.0008991078294331514 9.092193968654179e-05
-0.178442806 -0.09699654579 0.0009031196419288359 8.538720251382942e-05
-0.173121348 -0.09699654579 0.0009141611726706959 7.79777706651593e-05
-0.16779989 -0.09699654579 0.0009243814500871674 7.660164085866478e-05
-0.1624784321 -0.09699654579 0.0009361729898022207 7.530279765946342e-05
-0.1571569741 -0.09699654579 0.0009464486929203649 6.730412769582793e-05
-0.1518355161 -0.09699654579 0.0009588313125000902 5.865260517435697e-05
-0.1465140581 -0.09699654579 0.0009740790504036829 5.1915947174778775e-05
-0.1411926001 -0.09699654579 0.0009861267395395636 4.27192816524878e-05
-0.1358711421 -0.09699654579 0.0009964989211759825 3.4327970236535e-05
-0.1305496842 -0.09699654579 0.001006658564499215 2.55251582134364e-05
-0.1252282262 -0.09699654579 0.0010171599419204595 1.630404011910268e-05
-0.1199067682 -0.09699654579 0.0010341046050019998 9.221203925243434e-06
-0.1145853102 -0.09699654579 0.001050317878038089 3.7081309996049416e-06
-0.1092638522 -0.09699654579 0.0010681758632448241 -1.6316519532738028e-06
-0.1039423943 -0.09699654579 0.0010882955746671788 -8.64010162439258e-06
-0.09862093627 -0.09699654579 0.0010999711590631066 -8.326636015360684e-08
-0.09329947084 -0.09699654579 0.0011115971849513704 9.702348396446393e-06
-0.08797801286 -0.09699654579 0.0011230044105243863 2.06332587650685e-05
-0.08265655488 -0.09699654579 0.001133943822023806 2.9661613414818644e-05
-0.0773350969 -0.09699654579 0.001130736120524531 3.478017285562493e-05
-0.07201363891 -0.09699654579 0.0011266475464275264 3.944475251543275e-05
-0.06669218093 -0.09699654579 0.0011227633990699992 4.4037355386257076e-05
-0.06137072667 -0.09699654579 0.0011187770693902837 4.9149952083464686e-05
-0.05604926869 -0.09699654579 0.0011233067683231346 4.833132654834743e-05
-0.05072781071 -0.09699654579 0.0011287076490769684 4.652921483114963e-05
-0.045406349 -0.09699654579 0.001134238505132256 4.4727454428876745e-05
-0.04008489102 -0.09699654579 0.0011405948587591282 4.273083287473357e-05
-0.03476343304 -0.09699654579 0.001147554086883943 4.3171383663403846e-05
-0.02944197692 -0.09699654579 0.0011512887866378847 5.1546576247489054e-05
-0.02412051894 -0.09699654579 0.0011549862283199064 5.970842890732775e-05
-0.01879905909 -0.09699654579 0.0011588655163355486 6.80793993984896e-05
-0.01347760204 -0.09699654579 0.0011630572227536893 7.696150325178227e-05
-0.00815614406 -0.09699654579 0.0011555250963240678 8.30318262780128e-05
-0.00283468538 -0.09699654579 0.0011378812038587893 8.730138805014724e-05
0.002486772602 -0.09699654579 0.0011197328699221044 9.19227554850963e-05
0.007808230817 -0.09699654579 0.0011015121498515726 9.678851061494278e-05
0.0131296888 -0.09699654579 0.0010836968117144416 0.00010122684506395002
0.01845114678 -0.09699654579 0.0010644652024176166 8.871071443680802e-05
0.02377260476 -0.09699654579 0.0010432759472834903 6.389129058987287e-05
0.02909406275 -0.09699654579 0.0010209304194870946 3.789739931714258e-05
0.03441552073 -0.09699654579 0.0009984909743203387 1.1787584168217626e-05
0.03973697871 -0.09699654579 0.0009773969049099134 -1.3198535782911642e-05
0.04505843669 -0.09699654579 0.0009753292444862753 -4.046385639954912e-05
0.05037989467 -0.09699654579 0.0009983122761179645 -6.944316851286401e-05
0.05570135266 -0.09699654579 0.0010218251159181098 -9.89453668997122e-05
0.06102281436 -0.09699654579 0.0010464016367591603 -0.0001290466939718808
0.06634426862 -0.09699654579 0.001069358919456844 -0.0001577178143689668
0.0716657266 -0.09699654579 0.0010923188359511014 -0.00018639555694208287
0.07698718458 -0.09699654579 0.0011038578828879582 -0.0001786619831679884
0.08230864257 -0.09699654579 0.0011146985945637649 -0.00016857457664710648
0.08763010055 -0.09699654579 0.0011254451149999992 -0.00015938438744880716
0.09295155853 -0.09699654579 0.001135916359704416 -0.00015037277733651112
0.09827301651 -0.09699654579 0.0011466582383950965 -0.00014102221503998948
0.1035944745 -0.09699654579 0.0011512234714793563 -0.00014206662138284648
0.1089159325 -0.09699654579 0.0011400677270959343 -0.00016238357381635638
0.1142373979 -0.09699654579 0.0011303181912398334 -0.00018214556286614794
0.1195588559 -0.09699654579 0.0011216429593828006 -0.0002010901504252579
0.1248803139 -0.09699654579 0.0011130226049146472 -0.0002200327894022702
0.1302017719 -0.09699654579 0.0011034782306343133 -0.0002398065086069521
0.1355232298 -0.09699654579 0.0011177335162308644 -0.00026738887390315684
0.1408446878 -0.09699654579 0.0011460266891160842 -0.0002976576272513396
0.1461661458 -0.09699654579 0.0011744022196075866 -0.0003278034076421617
0.1514876038 -0.09699654579 0.001203475138898268 -0.0003579872277859505
0.1568090618 -0.09699654579 0.001232623844947322 -0.0003881738391844
0.1621305197 -0.09699654579 0.0012608445922565057 -0.0004168346540725301
0.1674519777 -0.09699654579 0.0013021413729743605 -0.00040756101461464014
0.1727734357 -0.09699654579 0.001347676368885312 -0.00038462240796984925
0.1780948937 -0.09699654579 0.0013948893999237298 -0.00036105962009488093
0.1834163517 -0.09699654579 0.0014413215285421458 -0.0003376597304688843
0.1887378097 -0.09699654579 0.0014846691471096546 -0.00031583483416469145
0.1940592676 -0.09699654579 0.001527589818937876 -0.0002940140890956184
0.1993807256 -0.09699654579 0.0015355814801578259 -0.00025555023455557137
0.2047021836 -0.09699654579 0.0015335571489091225 -0.00021221398625930816
0.2100236416 -0.09699654579 0.0015312334230863772 -0.00017281835641556653
0.2153450996 -0.09699654579 0.0015288851599004525 -0.00013351711326314652
0.2206665576 -0.09699654579 0.0015266136216604287 -9.42262767113134e-05
0.2259880155 -0.09699654579 0.001524041287123645 -5.490496357747808e-05
0.2313094735 -0.09699654579 0.0014853512994274683 -3.349743071389474e-05
0.2366309315 -0.09699654579 0.0014370097206734761 -1.621026714007765e-05
0.2419523895 -0.09699654579 0.0013887685647264866 1.0942339468452954e-06
0.2472738475 -0.09699654579 0.001340322651276917 1.8393925396594255e-05
0.2525953054 -0.09699654579 0.0012950740357160955 3.383396592620171e-05
0.2579167783 -0.09699654579 0.0012515822480982151 4.845742018341682e-05
0.2632382214 -0.09699654579 0.0012082649847301491 1.5345002279876354e-05
0.2685596943 -0.09699654579 0.0011643921135115005 -2.821476539232847e-05
0.2738811374 -0.09699654579 0.00112269098208597 -7.002241299419849e-05
0.2792026103 -0.09699654579 0.0010830976901579654 -0.00010992007919949367
0.2845240533 -0.09699654579 0.0010434451245738279 -0.00015008343227933114
0.2898455262 -0.09699654579 0.0010024957557295464 -0.0001913249960088056
0.2951669693 -0.09699654579 0.0010082813574604416 -0.00024368233460262548
0.3004884422 -0.09699654579 0.0010186533639059295 -0.0002953488624827088
0.3058098853 -0.09699654579 0.0010287724848816319 -0.00034712294907233754
0.3111313581 -0.09699654579 0.0010390422611648567 -0.00039890242788998107
0.3164528012 -0.09699654579 0.0010487837887163773 -0.0004491367710482051
0.3217742741 -0.09699654579 0.0010596821788051672 -0.0004957345770644913
0.3270957172 -0.09699654579 0.0010911966977482897 -0.0005176824786308237
0.3324171901 -0.09699654579 0.001122883425098854 -0.0005396185802386962
0.3377386332 -0.09699654579 0.0011535798873282795 -0.000561511230758073
0.343060106 -0.09699654579 0.001183528357680729 -0.0005833105145596162
0.3483815491 -0.09699654579 0.0012135892069976562 -0.0006050524131248461
0.353703022 -0.09699654579 0.0012427027202421093 -0.0006234725465601509
0.3590244651 -0.09699654579 0.0012681820406586902 -0.0006350322619310362
0.364345938 -0.09699654579 0.0012931651476282685 -0.0006463402372081748
0.369667381 -0.09699654579 0.0013181269145413725 -0.0006576698456457122
0.3749888539 -0.09699654579 0.0013429828513746957 -0.0006689483372912673
0.380310297 -0.09699654579 0.001367050917271616 -0.0006801381387579399
0.3856317699 -0.09699654579 0.0013885629658362717 -0.0006780444778702379
0.390953213 -0.09699654579 0.0014091379109741101 -0.0006724437023208999
0.3962746859 -0.09699654579 0.0014304667577143251 -0.0006655110027276192
0.4015961289 -0.09699654579 0.0014505213142693932 -0.0006605095928721039
0.4069176018 -0.09699654579 0.00147040796224265 -0.0006559275438263472
0.4122390449 -0.09699654579 0.0014814671568475946 -0.000649237929613971
0.4175605178 -0.09699654579 0.0014805884552079474 -0.0006398269108536477
0.4228819609 -0.09699654579 0.0014806033432627785 -0.0006328817342375372
0.4282034338 -0.09699654579 0.0014807798595700234 -0.0006261120762949756
0.4335248768 -0.09699654579 0.001480960987568335 -0.0006196653943439307
0.4388463497 -0.09699654579 0.0014770384191942507 -0.0006158803286360003
0.4441677928 -0.09699654579 0.0014661080669033258 -0.000623015784801735
0.4494892657 -0.09699654579 0.0014548508771091064 -0.0006299268587945219
0.4548107088 -0.09699654579 0.0014434725148569406 -0.000636981738601195
0.4601321816 -0.09699654579 0.0014331476516337457 -0.0006441062113375139
0.4654536247 -0.09699654579 0.0014244842858238875 -0.0006571950701719854
0.4707750976 -0.09699654579 0.0014172186316539915 -0.0006783967651534367
0.4760965407 -0.09699654579 0.0014084928144788476 -0.0007007810346075333
0.4814180136 -0.09699654579 0.001401064460768713 -0.0007220258974402195
0.4867394567 -0.09699654579 0.001394448094553655 -0.0007427294528386767
0.4920609295 -0.09699654579 0.0013981601322142058 -0.0007677745490644848
0.4973823726 -0.09699654579 0.0014045402745844289 -0.0007939422765463499
0.5027038455 -0.09699654579 0.0014102471209688596 -0.0008184780491438202
0.5080252886 -0.09699654579 0.0014163388842926262 -0.0008440177694261495
0.5133467317 -0.09699654579 0.0014259538525571683 -0.0008652237499136024
0.5186682343 -0.09699654579 0.001439395846098421 -0.0008810551545820497
0.5239896774 -0.09699654579 0.0014505443819665055 -0.0008971897375817346
0.5293111205 -0.09699654579 0.0014626451401262791 -0.0009131541048059649
0.5346325636 -0.09699654579 0.001472344836939604 -0.0009250269928691598
0.5399540663 -0.09699654579 0.0014763426118486337 -0.0009330245520714445
0.5452755094 -0.09699654579 0.001479997921887314 -0.0009417571855146406
0.5505969524 -0.09699654579 0.001484217608886789 -0.000949745959542637
0.5559183955 -0.09699654579 0.001479614418237474 -0.0009581735366228337
0.5612398982 -0.09699654579 0.0014719536168676436 -0.0009687689882108161
0.5665613413 -0.09699654579 0.0014643165486918385 -0.000979335761760234
0.5718827844 -0.09699654579 0.0014527766835671708 -0.000990987157078111
0.5772042274 -0.09699654579 0.0014370192628037266 -0.001008848956389811
0.5825257301 -0.09699654579 0.0014211069534068156 -0.0010267275700358268
0.5878471732 -0.09699654579 0.0014028669709142047 -0.0010467355780844454
0.5931686163 -0.09699654579 0.0013827212910711205 -0.0010725063559972414
0.5984900594 -0.09699654579 0.0013617248975316583 -0.0010981831881647108
0.6038115621 -0.09699654579 0.0013407961511162196 -0.0011298800173508235
0.6091330051 -0.09699654579 0.001318742314245893 -0.0011646803316860677
0.6144544482 -0.09699654579 0.001297250524971048 -0.0012019838225124243
0.6197758913 -0.09699654579 0.0012737144779988697 -0.0012464236726673738
0.625097394 -0.09699654579 0.0012513549956548982 -0.0012919052693703527
0.6304188371 -0.09699654579 0.0012297366171441784 -0.0013439615634092514
0.6357402802 -0.09699654579 0.0012072470392309109 -0.0013986318179460364
0.6410617828 -0.09699654579 0.0011871902389769917 -0.001457524751437518
0.6463832259 -0.09699654579 0.001168301473958928 -0.0015222797211599125
0.651704669 -0.09699654579 0.0011502266818867158 -0.00159111326448589
0.6570261121 -0.09699654579 0.0011356900740201134 -0.0016667454749638697
0.6623476148 -0.09699654579 0.0011238368943832756 -0.0017460414818010871
0.6676690578 -0.09699654579 0.0011143151547715377 -0.0018310710591280073
0.6729905009 -0.09699654579 0.0011085203613111071 -0.0019217512474326705
0.678311944 -0.09699654579 0.001105485436898909 -0.0020190827834234027
0.6836334467 -0.09699654579 0.001107895547905505 -0.0021216770570862257
0.6889548898 -0.09699654579 0.0011176914913799177 -0.0022317125404698965
0.6942763329 -0.09699654579 0.001136425950161945 -0.002348617427935719
0.6995977759 -0.09699654579 0.0011614610367533741 -0.002473339110143964
0.7049192786 -0.09699654579 0.0011958163491382877 -0.002602955272296586
0.7102407217 -0.09699654579 0.0012421405577642474 -0.0027387806261851364
0.7155621648 -0.09699654579 0.0013042183776286712 -0.0028818650302532803
0.7208836079 -0.09699654579 0.0013799291463072068 -0.0030329125384765125
0.7262051105 -0.09699654579 0.001473325684507467 -0.00318703424875268
0.7315265536 -0.09699654579 0.001580827128606862 -0.0033428830391632794
0.7368479967 -0.09699654579 0.0017170502934049157 -0.0035010710111783266
0.7421694398 -0.09699654579 0.0018791002632496394 -0.003655394309581752
0.7474909425 -0.09699654579 0.0020631127527366744 -0.003808844556242945
0.7528123856 -0.09699654579 0.0022788427773935862 -0.003951305108075769
0.7581338286 -0.09699654579 0.002523827026472774 -0.004079446366303595
-0.3008363545 -0.09367749095 0.0009727139240181961 0.000425242972275351
-0.2955148816 -0.09367749095 0.0009626657262511397 0.00041996746106807547
-0.2901934385 -0.09367749095 0.0009457084578903284 0.0004098616636750601
-0.2848719656 -0.09367749095 0.0009303651195340333 0.0004041615485293879
-0.2795505226 -0.09367749095 0.0009332015821825209 0.0003993970868696383
-0.2742290497 -0.09367749095 0.0009305286808977185 0.00040388338428374676
-0.2689076066 -0.09367749095 0.000926446919709841 0.00040128179740229857
-0.2635861337 -0.09367749095 0.0009257280974282345 0.0004021647902039058
-0.2582646906 -0.09367749095 0.0009100700355690513 0.0004033614801182287
-0.2529432178 -0.09367749095 0.0008984108285750186 0.0004184560157861269
-0.2476217598 -0.09367749095 0.000891004472292875 0.00042289088920634884
-0.2423003018 -0.09367749095 0.0008928102460768248 0.00041585409647364717
-0.2369788438 -0.09367749095 0.0008582583309470336 0.00037593444059393316