VARIABLES = X,Y,phix,phiy
ZONE I=200,J=200,F=POINT 
-0.3008363545 -0.1003156006 0.0006549252680545609 0.0003905840189414572
-0.2955148816 -0.1003156006 0.0006561999703108095 0.00038196061095885597
-0.2901934385 -0.1003156006 0.000653029478795881 0.000364971961776189
-0.2848719656 -0.1003156006 0.0006488834337532472 0.00034687160310722584
-0.2795505226 -0.1003156006 0.0006446030309000503 0.0003234992906377696
-0.2742290497 -0.1003156006 0.0006402448914525807 0.00029635135866511967
-0.2689076066 -0.1003156006 0.0006338095515368983 0.0002629339133981365
-0.2635861337 -0.1003156006 0.0006424474084956673 0.00023551994011962286
-0.2582646906 -0.1003156006 0.0006667553235311284 0.00020317274115246202
-0.2529432178 -0.1003156006 0.0006977596193175917 0.00016987257223576922
-0.2476217598 -0.1003156006 0.0007335875026251046 0.00013885570378380363
-0.2423003018 -0.1003156006 0.0007581038392888105 0.0001281817206629236
-0.2369788438 -0.1003156006 0.00077984365683465 0.00012898241637381052
-0.2316573858 -0.1003156006 0.0008017454493555661 0.00013165106996357117
-0.2263359278 -0.1003156006 0.0008251927697082303 0.0001328534768581872
-0.2210144699 -0.1003156006 0.0008295836831096004 0.0001315029434082184
-0.2156930119 -0.1003156006 0.0008336089817973887 0.00013346981602920123
-0.2103715539 -0.1003156006 0.0008379258369101394 0.0001363655861494144
-0.2050500959 -0.1003156006 0.00083687652713749 0.00012295860080644043
-0.1997286379 -0.1003156006 0.0008371897085166981 0.0001135360257103645
-0.19440718 -0.1003156006 0.0008399297125243677 9.88977396580547e-05
-0.189085722 -0.1003156006 0.0008501009699899136 8.591659585491575e-05
-0.183764264 -0.1003156006 0.0008584395608839846 6.542344846210786e-05
-0.178442806 -0.1003156006 0.0008659156843824203 4.670964428535022e-05
-0.173121348 -0.1003156006 0.0008666029870583186 4.2654123966379224e-05
-0.16779989 -0.1003156006 0.000867144793302618 4.31335804555443e-05
-0.1624784321 -0.1003156006 0.0008697544806408795 3.499464018002981e-05
-0.1571569741 -0.1003156006 0.0008810918610927716 2.215448197177529e-05
-0.1518355161 -0.1003156006 0.0008971908022744477 5.4970625499116606e-06
-0.1465140581 -0.1003156006 0.000912721780547813 -1.1762761096063208e-05
-0.1411926001 -0.1003156006 0.0009306439194358204 -2.577999720597288e-05
-0.1358711421 -0.1003156006 0.0009525936499810953 -3.0495145699630968e-05
-0.1305496842 -0.1003156006 0.0009743739387481274 -3.5198569208638344e-05
-0.1252282262 -0.1003156006 0.0009942365546836273 -3.885249296872006e-05
-0.1199067682 -0.1003156006 0.0010045296188975865 -3.438097405656712e-05
-0.1145853102 -0.1003156006 0.001012439379915271 -2.7234403699676478e-05
-0.1092638522 -0.1003156006 0.001018888680306289 -1.925354926222022e-05
-0.1039423943 -0.1003156006 0.001025363365584741 -1.2052539476312217e-05
-0.09862093627 -0.1003156006 0.0010313353620461413 -1.0011062679255284e-05
-0.09329947084 -0.1003156006 0.00103660879013811 -8.805686740298217e-06
-0.08797801286 -0.1003156006 0.0010421482842880706 -7.608405796554394e-06
-0.08265655488 -0.1003156006 0.0010486492158024413 -7.343056386591264e-06
-0.0773350969 -0.1003156006 0.0010618666814801122 -1.130216820081308e-05
-0.07201363891 -0.1003156006 0.0010750836494613691 -1.5255219411562075e-05
-0.06669218093 -0.1003156006 0.001088289739063666 -1.9216801064093863e-05
-0.06137072667 -0.1003156006 0.0011012720024969772 -2.3209169781624667e-05
-0.05604926869 -0.1003156006 0.0011120346988484462 -2.5290826580752527e-05
-0.05072781071 -0.1003156006 0.0011225720265399905 -2.667952208524518e-05
-0.045406349 -0.1003156006 0.0011333127931940701 -2.8143885487022988e-05
-0.04008489102 -0.1003156006 0.0011431393678980424 -2.9435580320468023e-05
-0.03476343304 -0.1003156006 0.0011513322178153189 -2.936486947213864e-05
-0.02944197692 -0.1003156006 0.0011560586166689374 -2.5730288597302752e-05
-0.02412051894 -0.1003156006 0.0011605669844057002 -2.1952719320827088e-05
-0.01879905909 -0.1003156006 0.0011649501522553345 -1.8014700200551082e-05
-0.01347760204 -0.1003156006 0.0011694968629079531 -1.4267137224497443e-05
-0.00815614406 -0.1003156006 0.001173542547853995 -1.2315451635347659e-05
-0.00283468538 -0.1003156006 0.001177043516175567 -1.1447690453444248e-05
0.002486772602 -0.1003156006 0.0011803856274523311 -1.0688804159927282e-05
0.007808230817 -0.1003156006 0.0011839709618268707 -9.907592068581315e-06
0.0131296888 -0.1003156006 0.001187255428804348 -9.069517200358219e-06
0.01845114678 -0.1003156006 0.0011929217270856007 -1.0819140042029613e-05
0.02377260476 -0.1003156006 0.0012001126074755797 -1.4348433765054952e-05
0.02909406275 -0.1003156006 0.0012071816744671678 -1.8124326918811237e-05
0.03441552073 -0.1003156006 0.0012143472462982868 -2.1892105442757956e-05
0.03973697871 -0.1003156006 0.0012214420073975438 -2.5447293565061985e-05
0.04505843669 -0.1003156006 0.0012292152687169277 -2.772368632041389e-05
0.05037989467 -0.1003156006 0.0012406099504199948 -2.8531156961887035e-05
0.05570135266 -0.1003156006 0.0012520092107480643 -2.9612398255604032e-05
0.06102281436 -0.1003156006 0.001263775758043181 -3.0811608511574625e-05
0.06634426862 -0.1003156006 0.0012750955386209618 -3.1773540359668546e-05
0.0716657266 -0.1003156006 0.001286189524151482 -3.253322500927555e-05
0.07698718458 -0.1003156006 0.0013032960201934656 -2.4535762101640765e-05
0.08230864257 -0.1003156006 0.0013209376943575863 -1.574927726272808e-05
0.08763010055 -0.1003156006 0.0013389712534195605 -6.895087478061296e-06
0.09295155853 -0.1003156006 0.001356606989523433 1.8638330519572876e-06
0.09827301651 -0.1003156006 0.0013735129059333328 1.0599760947079443e-05
0.1035944745 -0.1003156006 0.0013850677276647588 2.4725396945337814e-05
0.1089159325 -0.1003156006 0.0013860568682802687 4.9540657554978576e-05
0.1142373979 -0.1003156006 0.0013870437612032713 7.43410847111996e-05
0.1195588559 -0.1003156006 0.0013876255132982017 9.739188481535892e-05
0.1248803139 -0.1003156006 0.0013884357296338925 0.0001211456027603467
0.1302017719 -0.1003156006 0.0013892652924750988 0.00014520750813546614
0.1355232298 -0.1003156006 0.0013760355810044792 0.00016197966145467874
0.1408446878 -0.1003156006 0.0013532736424269384 0.0001733008903626599
0.1461661458 -0.1003156006 0.0013318839442018626 0.00018404266119467855
0.1514876038 -0.1003156006 0.0013103562372272321 0.00019478810126122612
0.1568090618 -0.1003156006 0.0012888945672161276 0.00020551760773811475
0.1621305197 -0.1003156006 0.0012675809912353444 0.0002162197309454865
0.1674519777 -0.1003156006 0.0012521890759892948 0.00021071553273176825
0.1727734357 -0.1003156006 0.0012393678268226979 0.00019864895233361854
0.1780948937 -0.1003156006 0.0012267314878986345 0.00018658737380233955
0.1834163517 -0.1003156006 0.0012140702975726996 0.00017451519230651281
0.1887378097 -0.1003156006 0.0012011049628483646 0.00016294926996660518
0.1940592676 -0.1003156006 0.0011885649934477553 0.00015270007630882032
0.1993807256 -0.1003156006 0.001190795136048564 0.00015078537050899215
0.2047021836 -0.1003156006 0.0011973425899846053 0.00015168801067058448
0.2100236416 -0.1003156006 0.001203932516930598 0.00015250907161350205
0.2153450996 -0.1003156006 0.001208472487360106 0.00015322670417948996
0.2206665576 -0.1003156006 0.0012137927370601074 0.00015410359219647225
0.2259880155 -0.1003156006 0.001218946675945682 0.00015499376270194766
0.2313094735 -0.1003156006 0.001212018331113926 0.00016817751578478005
0.2366309315 -0.1003156006 0.0012007418374616165 0.00018329287834939673
0.2419523895 -0.1003156006 0.0011892307470527954 0.00019775923170022114
0.2472738475 -0.1003156006 0.0011776609044125857 0.00021216966862803215
0.2525953054 -0.1003156006 0.0011657044214320297 0.00022656277066685905
0.2579167783 -0.1003156006 0.0011528652178444993 0.0002399241895968719
0.2632382214 -0.1003156006 0.0011251222549806933 0.00024167685105225476
0.2685596943 -0.1003156006 0.0010938132558786216 0.0002407534701928943
0.2738811374 -0.1003156006 0.001061688228061133 0.00023995563076851216
0.2792026103 -0.1003156006 0.0010301557034041145 0.00023906197024394575
0.2845240533 -0.1003156006 0.0009993301657837512 0.00023751061109071066
0.2898455262 -0.1003156006 0.0009686819299383412 0.00023597522269190588
0.2951669693 -0.1003156006 0.0009373488298313354 0.0002188632530657464
0.3004884422 -0.1003156006 0.0009065364037095868 0.00019946347401542604
0.3058098853 -0.1003156006 0.0008771188549086082 0.00018045929795106088
0.3111313581 -0.1003156006 0.0008478524374998147 0.00016144267362761666
0.3164528012 -0.1003156006 0.000818240010191427 0.00014244038885276785
0.3217742741 -0.1003156006 0.0007888756968953414 0.0001232477250959927
0.3270957172 -0.1003156006 0.0007750635993500208 9.041598743672686e-05
0.3324171901 -0.1003156006 0.0007613425142869788 5.758622538394703e-05
0.3377386332 -0.1003156006 0.0007473492415845474 2.4763323032701543e-05
0.343060106 -0.1003156006 0.0007332869861749093 -8.066536263613187e-06
0.3483815491 -0.1003156006 0.0007193753970004225 -3.8273716649771676e-05
0.353703022 -0.1003156006 0.0007132437514870529 -6.547351593368304e-05
0.3590244651 -0.1003156006 0.0007241334138229698 -8.59867421724507e-05
0.364345938 -0.1003156006 0.0007351081552828775 -0.00010648384884443665
0.369667381 -0.1003156006 0.0007428694963011909 -0.0001258142469724849
0.3749888539 -0.1003156006 0.0007513790432344085 -0.0001454780226004069
0.380310297 -0.1003156006 0.0007603672579502725 -0.0001652312669776349
0.3856317699 -0.1003156006 0.0007668381294670901 -0.00016400756469014616
0.390953213 -0.1003156006 0.0007701024453958211 -0.00015829094948000626
0.3962746859 -0.1003156006 0.0007732611015690113 -0.00015296164018060096
0.4015961289 -0.1003156006 0.000776164799829982 -0.0001476470966856
0.4069176018 -0.1003156006 0.000779272236925631 -0.00014243209043541
0.4122390449 -0.1003156006 0.0007733812530340884 -0.0001382653359465363
0.4175605178 -0.1003156006 0.0007561742979727019 -0.00013280963150655284
0.4228819609 -0.1003156006 0.0007384665688398325 -0.00012713127009958755
0.4282034338 -0.1003156006 0.0007210812817667072 -0.00012149689618344964
0.4335248768 -0.1003156006 0.000704819426774198 -0.00011697552934926854
0.4388463497 -0.1003156006 0.0006877180195425894 -0.000114817003522155
0.4441677928 -0.1003156006 0.0006691731965802 -0.00011839541919745559
0.4494892657 -0.1003156006 0.0006507764582338608 -0.00012166294246206498
0.4548107088 -0.1003156006 0.0006328174551353477 -0.0001243282281551058
0.4601321816 -0.1003156006 0.000614806413814706 -0.00012751182058788737
0.4654536247 -0.1003156006 0.0005997688543446231 -0.00012883816132562597
0.4707750976 -0.1003156006 0.0005892522949884463 -0.00012679432121949217
0.4760965407 -0.1003156006 0.0005776502445673856 -0.00012481498885202433
0.4814180136 -0.1003156006 0.0005663225745724178 -0.00012284562453391485
0.4867394567 -0.1003156006 0.0005546316696974259 -0.00012084820542562538
0.4920609295 -0.1003156006 0.0005391082538856012 -0.00010957622084045182
0.4973823726 -0.1003156006 0.0005225730254764169 -9.641582817385139e-05
0.5027038455 -0.1003156006 0.0005068213605720157 -8.313722794679939e-05
0.5080252886 -0.1003156006 0.0004910392637633668 -6.979462929054336e-05
0.5133467317 -0.1003156006 0.00046809299852779943 -5.656318677047457e-05
0.5186682343 -0.1003156006 0.00043634334283398327 -3.936734461724366e-05
0.5239896774 -0.1003156006 0.00040488976332539206 -2.2273469161861042e-05
0.5293111205 -0.1003156006 0.00037338214807597765 -5.686981001921747e-06
0.5346325636 -0.1003156006 0.00033811947421881483 7.247189257261378e-06
0.5399540663 -0.1003156006 0.00029431713252345585 1.9399201737424558e-05
0.5452755094 -0.1003156006 0.00025016866733634145 3.211376700699739e-05
0.5505969524 -0.1003156006 0.00020741373028218917 4.356068087249267e-05
0.5559183955 -0.1003156006 0.00016004863206721555 4.892208904646386e-05
0.5612398982 -0.1003156006 0.00010731647104441928 5.402058428143948e-05
0.5665613413 -0.1003156006 5.5304257674541505e-05 5.889311115473652e-05
0.5718827844 -0.1003156006 4.050451713780231e-06 5.9515157492663e-05
0.5772042274 -0.1003156006 -5.379693960443397e-05 5.65131984134593e-05
0.5825257301 -0.1003156006 -0.00011132961464941954 5.364591421936489e-05
0.5878471732 -0.1003156006 -0.00016970428486835613 4.652232239616096e-05
0.5931686163 -0.1003156006 -0.00023052445191013254 3.540976156966875e-05
0.5984900594 -0.1003156006 -0.00029141938399007553 2.495387202233344e-05
0.6038115621 -0.1003156006 -0.00035512224031914797 7.786557245838098e-06
0.6091330051 -0.1003156006 -0.0004178937166338836 -1.0845670878811324e-05
0.6144544482 -0.1003156006 -0.0004826886946717759 -3.312854056741806e-05
0.6197758913 -0.1003156006 -0.0005466532381320975 -5.969646799039801e-05
0.625097394 -0.1003156006 -0.0006102823047562184 -8.822883463223565e-05
0.6304188371 -0.1003156006 -0.0006749416533464752 -0.00012201294920731439
0.6357402802 -0.1003156006 -0.0007376009867171234 -0.00015789676446332823
0.6410617828 -0.1003156006 -0.0007988698993062797 -0.00019605669486460968
0.6463832259 -0.1003156006 -0.000860504481606114 -0.00023831804965388498
0.651704669 -0.1003156006 -0.0009212777292685291 -0.0002823844262570743
0.6570261121 -0.1003156006 -0.000978893329382365 -0.0003299316733535765
0.6623476148 -0.1003156006 -0.0010349058448247863 -0.00037886407882505523
0.6676690578 -0.1003156006 -0.001090073357528261 -0.0004304621972259021
0.6729905009 -0.1003156006 -0.0011421618256128258 -0.00048414249984933734
0.678311944 -0.1003156006 -0.0011929646986456306 -0.0005388884001122654
0.6836334467 -0.1003156006 -0.0012418861761117458 -0.0005949593815373167
0.6889548898 -0.1003156006 -0.0012874938401678119 -0.0006516994607830001
0.6942763329 -0.1003156006 -0.0013338412252652076 -0.000709226176085961
0.6995977759 -0.1003156006 -0.0013771965980617954 -0.0007686738133342607
0.7049192786 -0.1003156006 -0.0014188029266465096 -0.0008275158215721249
0.7102407217 -0.1003156006 -0.0014565428407175068 -0.0008858146869832788
0.7155621648 -0.1003156006 -0.0014946648394399166 -0.0009446360401678354
0.7208836079 -0.1003156006 -0.0015312815555766422 -0.0010030889550942516
0.7262051105 -0.1003156006 -0.0015655246796765405 -0.0010603516238011986
0.7315265536 -0.1003156006 -0.001599334046536735 -0.0011164368479720374
0.7368479967 -0.1003156006 -0.0016305178071565193 -0.0011707873694222334
0.7421694398 -0.1003156006 -0.0016609052185713661 -0.0012234420233024905
0.7474909425 -0.1003156006 -0.0016902643301575059 -0.001274657217465745
0.7528123856 -0.1003156006 -0.0017211027501321948 -0.0013208569053653734
0.7581338286 -0.1003156006 -0.0017500357417461118 -0.001363877420573277
-0.3008363545 -0.09699654579 0.000640820047283218 0.0003879234552001098
-0.2955148816 -0.09699654579 0.0006453742422277896 0.0003803433956044937
-0.2901934385 -0.09699654579 0.0006383329767876482 0.00037166548517869765
-0.2848719656 -0.09699654579 0.0006339115296176553 0.0003516890957390263
-0.2795505226 -0.09699654579 0.0006270642873407341 0.00032860134456218725
-0.2742290497 -0.09699654579 0.0006217424439592568 0.0003003872100962245
-0.2689076066 -0.09699654579 0.0006149317276189438 0.0002631856198652351
-0.2635861337 -0.09699654579 0.0006111686368309634 0.0002252243517481607
-0.2582646906 -0.09699654579 0.0006301310892379588 0.00019063990805907267
-0.2529432178 -0.09699654579 0.0006627903231047848 0.00015931343623143366
-0.2476217598 -0.09699654579 0.0007042010802541018 0.0001305139254405007
-0.2423003018 -0.09699654579 0.0007391580972208896 0.00011192847798538181
-0.2369788438 -0.09699654579 0.0007562865025752528 0.00011522884786974425
-0.2316573858 -0.09699654579 0.0007823784410347331 0.00011751288384829231
-0.2263359278 -0.09699654579 0.0008113053210437301 0.00012502181923377685
-0.2210144699 -0.09699654579 0.0008171682418783643 0.00012795155539638983
-0.2156930119 -0.09699654579 0.0008214687043682366 0.000130919292513914
-0.2103715539 -0.09699654579 0.0008261457894265231 0.00014277941082308215
-0.2050500959 -0.09699654579 0.0008270241399712499 0.00013922397913906082
-0.1997286379 -0.09699654579 0.0008298033398911194 0.0001243627597567164
-0.19440718 -0.09699654579 0.0008319635010090216 0.00010541952430862268
-0.189085722 -0.09699654579 0.0008378721901830936 8.905833016455965e-05
-0.183764264 -0.09699654579 0.0008441611154992646 7.426374297075686e-05
-0.178442806 -0.09699654579 0.0008468764752802353 6.560629721658767e-05
-0.173121348 -0.09699654579 0.0008484384813130832 5.8780342882506726e-05
-0.16779989 -0.09699654579 0.0008515303971258537 4.6425673141585424e-05
-0.1624784321 -0.09699654579 0.0008553894788451962 3.104733647054767e-05
-0.1571569741 -0.09699654579 0.0008707106832740591 1.3715094157485802e-05
-0.1518355161 -0.09699654579 0.0008892476312052049 -3.76068868519369e-06
-0.1465140581 -0.09699654579 0.0009093255821459793 -2.2240083428358223e-05
-0.1411926001 -0.09699654579 0.0009292923694265019 -3.697137204427579e-05
-0.1358711421 -0.09699654579 0.000948572992490515 -4.0414041218265186e-05
-0.1305496842 -0.09699654579 0.0009665845090222292 -4.305559835734718e-05
-0.1252282262 -0.09699654579 0.0009852528238507097 -4.586138944749815e-05
-0.1199067682 -0.09699654579 0.0009938378663379263 -4.046509940640553e-05
-0.1145853102 -0.09699654579 0.001000653374504038 -3.208728382937371e-05
-0.1092638522 -0.09699654579 0.0010065366682723337 -2.3631096287681683e-05
-0.1039423943 -0.09699654579 0.0010109120941256898 -1.5272140831545616e-05
-0.09862093627 -0.09699654579 0.0010180758414697975 -1.4461267073516125e-05
-0.09329947084 -0.09699654579 0.0010255477719043201 -1.388755675156812e-05
-0.08797801286 -0.09699654579 0.001033370504997084 -1.3608342623262694e-05
-0.08265655488 -0.09699654579 0.001041190689104536 -1.3704698016071224e-05
-0.0773350969 -0.09699654579 0.0010540639365210392 -1.773197104800016e-05
-0.07201363891 -0.09699654579 0.0010671468001062561 -2.170095617844252e-05
-0.06669218093 -0.09699654579 0.001080160131561576 -2.5654777035779625e-05
-0.06137072667 -0.09699654579 0.0010946426431636186 -2.9748145158160974e-05
-0.05604926869 -0.09699654579 0.0011056367609949005 -3.163073283088519e-05
-0.05072781071 -0.09699654579 0.0011160233101424148 -3.281584486510539e-05
-0.045406349 -0.09699654579 0.0011264694187915975 -3.400357588034972e-05
-0.04008489102 -0.09699654579 0.0011362589785295987 -3.500851257440953e-05
-0.03476343304 -0.09699654579 0.0011442819047688979 -3.444127109017442e-05
-0.02944197692 -0.09699654579 0.0011496387632164826 -3.0074452125750986e-05
-0.02412051894 -0.09699654579 0.001154946134715366 -2.575464165586314e-05
-0.01879905909 -0.09699654579 0.0011603739955263648 -2.1414728022328985e-05
-0.01347760204 -0.09699654579 0.001165575789089021 -1.6957080920597257e-05
-0.00815614406 -0.09699654579 0.0011704810141523185 -1.4779266049263487e-05
-0.00283468538 -0.09699654579 0.001174862728451842 -1.4061386769605312e-05
0.002486772602 -0.09699654579 0.0011793212816580965 -1.3394108268204786e-05
0.007808230817 -0.09699654579 0.001183728313456551 -1.2745640997392546e-05
0.0131296888 -0.09699654579 0.001188146937456095 -1.2052510816798971e-05
0.01845114678 -0.09699654579 0.0011942314564275583 -1.4228008338402692e-05
0.02377260476 -0.09699654579 0.0012014703719789206 -1.8321046340316746e-05
0.02909406275 -0.09699654579 0.001208808880609749 -2.2564727049064714e-05
0.03441552073 -0.09699654579 0.001216000679326246 -2.686120530082317e-05
0.03973697871 -0.09699654579 0.001223270315711021 -3.092399648378431e-05
0.04505843669 -0.09699654579 0.0012311893333934616 -3.38237948435443e-05
0.05037989467 -0.09699654579 0.0012428271273500918 -3.541445536101152e-05
0.05570135266 -0.09699654579 0.0012544826880660825 -3.70249591053475e-05
0.06102281436 -0.09699654579 0.001266459793140223 -3.89007295031698e-05
0.06634426862 -0.09699654579 0.0012779238090342598 -4.045198738848667e-05
0.0716657266 -0.09699654579 0.0012894148261769394 -4.2007802130501546e-05
0.07698718458 -0.09699654579 0.0013084892804503766 -3.3510049906100515e-05
0.08230864257 -0.09699654579 0.0013278074954475364 -2.4341170011014472e-05
0.08763010055 -0.09699654579 0.001346604815894049 -1.530190950730798e-05
0.09295155853 -0.09699654579 0.001365450907372455 -6.2220300238454296e-06
0.09827301651 -0.09699654579 0.001384328467335271 2.8860863202026113e-06
0.1035944745 -0.09699654579 0.0013963926734687218 1.874234949867466e-05
0.1089159325 -0.09699654579 0.0013969883696625426 4.6730635436422056e-05
0.1142373979 -0.09699654579 0.0013972315926740946 7.367989684413674e-05
0.1195588559 -0.09699654579 0.0013972892674975743 9.967010732766279e-05
0.1248803139 -0.09699654579 0.0013973828962642165 0.00012565869530788083
0.1302017719 -0.09699654579 0.0013975910907286827 0.00015252678683640072
0.1355232298 -0.09699654579 0.001380768590242547 0.00017076957330609856
0.1408446878 -0.09699654579 0.001354705030132401 0.00018261175820287738
0.1461661458 -0.09699654579 0.0013289961209710266 0.00019432823277843922
0.1514876038 -0.09699654579 0.0013046109032730628 0.0002061741847809225
0.1568090618 -0.09699654579 0.0012803264891676582 0.0002180218207332942
0.1621305197 -0.09699654579 0.0012567275619366448 0.00022957635232801924
0.1674519777 -0.09699654579 0.0012403955774105792 0.00022202875864027035
0.1727734357 -0.09699654579 0.0012261577903301005 0.00020791156015456552
0.1780948937 -0.09699654579 0.0012118903294094344 0.0001929213732451395
0.1834163517 -0.09699654579 0.0011975773193924455 0.00017816742990675827
0.1887378097 -0.09699654579 0.0011838458839032475 0.00016526833953586008
0.1940592676 -0.09699654579 0.0011701207384120155 0.00015236145319503556
0.1993807256 -0.09699654579 0.0011746833196585131 0.00015050531837246343
0.2047021836 -0.09699654579 0.001183820248893093 0.0001517730924140372
0.2100236416 -0.09699654579 0.0011907797092739884 0.00015274765843032936
0.2153450996 -0.09699654579 0.0011977416703768428 0.0001538569884847659
0.2206665576 -0.09699654579 0.0012044129667387947 0.00015497039467941433
0.2259880155 -0.09699654579 0.0012113192766881641 0.00015605231929385967
0.2313094735 -0.09699654579 0.0012040847749148554 0.00017071147879489708
0.2366309315 -0.09699654579 0.0011935913445120423 0.00018844560568769876
0.2419523895 -0.09699654579 0.0011832131650999958 0.0002061755663991446
0.2472738475 -0.09699654579 0.0011728248689549148 0.00022390087226629844
0.2525953054 -0.09699654579 0.0011619391949566997 0.0002403178937311941
0.2579167783 -0.09699654579 0.0011506475305473266 0.00025570522654719084
0.2632382214 -0.09699654579 0.0011221042953093662 0.00025845583728098656
0.2685596943 -0.09699654579 0.0010897940524891964 0.00025845370225679857
0.2738811374 -0.09699654579 0.0010583338997968191 0.00025818351727813725
0.2792026103 -0.09699654579 0.001027148899663401 0.00025730382910223566
0.2845240533 -0.09699654579 0.0009962711179645957 0.00025666012209382553
0.2898455262 -0.09699654579 0.0009649216911060464 0.00025610438671123476
0.2951669693 -0.09699654579 0.000933010647714493 0.00023788386723694517
0.3004884422 -0.09699654579 0.0009025631790655689 0.0002179506099234811
0.3058098853 -0.09699654579 0.0008707851175841072 0.00019811644969280163
0.3111313581 -0.09699654579 0.000839233447960008 0.00017826167053257367
0.3164528012 -0.09699654579 0.0008080339861413535 0.00015877059708886349
0.3217742741 -0.09699654579 0.0007785861206284071 0.00013845728723981508
0.3270957172 -0.09699654579 0.0007661180387005038 0.00010227624152957369
0.3324171901 -0.09699654579 0.0007535847503080767 6.609293139784767e-05
0.3377386332 -0.09699654579 0.0007410217515795644 3.100944763706399e-05
0.343060106 -0.09699654579 0.0007283381552902614 -2.849687274396808e-06
0.3483815491 -0.09699654579 0.000715959823109796 -3.695765013899961e-05
0.353703022 -0.09699654579 0.0007140336608531587 -6.721333400279952e-05
0.3590244651 -0.09699654579 0.0007306884933986477 -8.89928595926529e-05
0.364345938 -0.09699654579 0.0007443679278784245 -0.00010968302615797422
0.369667381 -0.09699654579 0.0007582541533723871 -0.00013044740907813926
0.3749888539 -0.09699654579 0.0007708673677305571 -0.00015147536747958816
0.380310297 -0.09699654579 0.0007816622691486996 -0.00017198073870968271
0.3856317699 -0.09699654579 0.0007878075050219644 -0.00016976490945104034
0.390953213 -0.09699654579 0.0007939228529918274 -0.00016116251958526973
0.3962746859 -0.09699654579 0.0008003592867918789 -0.00015178603774816478
0.4015961289 -0.09699654579 0.000805530749471411 -0.00014394438390669955
0.4069176018 -0.09699654579 0.0008097534626632708 -0.00013733429649468224
0.4122390449 -0.09699654579 0.0008037254758215521 -0.0001305936528961755
0.4175605178 -0.09699654579 0.000784435858661593 -0.00012372383348076822
0.4228819609 -0.09699654579 0.0007664484115663663 -0.00011768136957761253
0.4282034338 -0.09699654579 0.0007487843884077242 -0.00011227068089190192
0.4335248768 -0.09699654579 0.0007307175240990855 -0.00010649198794145016
0.4388463497 -0.09699654579 0.000711840914546354 -0.00010385109180114305
0.4441677928 -0.09699654579 0.0006921660847526267 -0.0001080193169515745
0.4494892657 -0.09699654579 0.0006729162855128655 -0.00011225466918925301
0.4548107088 -0.09699654579 0.0006539151731284141 -0.00011630182958671751
0.4601321816 -0.09699654579 0.0006347431269032232 -0.000120072696623255
0.4654536247 -0.09699654579 0.0006201237436192925 -0.0001212975725989478
0.4707750976 -0.09699654579 0.0006101869607120973 -0.00011927895493727806
0.4760965407 -0.09699654579 0.0006012214176298636 -0.00011740220138949872
0.4814180136 -0.09699654579 0.000591413435965896 -0.00011538675019020643
0.4867394567 -0.09699654579 0.0005810923087967119 -0.00011346287757089763
0.4920609295 -0.09699654579 0.0005665210903115564 -0.00010078412380393362
0.4973823726 -0.09699654579 0.0005506958630093767 -8.518711682556986e-05
0.5027038455 -0.09699654579 0.0005338384999628079 -7.036576937597749e-05
0.5080252886 -0.09699654579 0.0005177852609634702 -5.549756780496208e-05
0.5133467317 -0.09699654579 0.0004936496890587816 -3.844521010812932e-05
0.5186682343 -0.09699654579 0.0004598870907831991 -1.8933149428990418e-05
0.5239896774 -0.09699654579 0.00042795924265518143 -1.9358663663326977e-06
0.5293111205 -0.09699654579 0.0003945666419352729 1.638758161099902e-05
0.5346325636 -0.09699654579 0.00035540001935671775 3.350764716844824e-05
0.5399540663 -0.09699654579 0.00030962528633464285 4.6927311682117405e-05
0.5452755094 -0.09699654579 0.00026506265189181905 5.9561091755877616e-05
0.5505969524 -0.09699654579 0.00021912007172063684 7.305067695288261e-05
0.5559183955 -0.09699654579 0.00016623651328376144 8.16219786344594e-05
0.5612398982 -0.09699654579 0.00011422650503310073 8.682910246632642e-05
0.5665613413 -0.09699654579 6.145044187440976e-05 9.21436993382048e-05
0.5718827844 -0.09699654579 4.465365467062749e-06 9.57923561389708e-05
0.5772042274 -0.09699654579 -5.3549192490356254e-05 9.353639033730987e-05
0.5825257301 -0.09699654579 -0.00011206630053054622 9.12679992300539e-05
0.5878471732 -0.09699654579 -0.00017401868487383954 8.64838233313371e-05
0.5931686163 -0.09699654579 -0.00023688785696616068 7.560982158296379e-05
0.5984900594 -0.09699654579 -0.00030162916945438583 6.464790592106364e-05
0.6038115621 -0.09699654579 -0.0003665758935683767 4.8436919602658964e-05
0.6091330051 -0.09699654579 -0.0004346865608561507 2.8478758559358855e-05
0.6144544482 -0.09699654579 -0.0005000638894570994 7.2672300884324285e-06
0.6197758913 -0.09699654579 -0.0005663307725374293 -2.028220703508788e-05
0.625097394 -0.09699654579 -0.0006327533198770677 -4.913710181323546e-05
0.6304188371 -0.09699654579 -0.0006986303331630377 -8.187082278928926e-05
0.6357402802 -0.09699654579 -0.00076531292821238 -0.00011773604754162337
0.6410617828 -0.09699654579 -0.0008281871006106334 -0.00015707316682854903
0.6463832259 -0.09699654579 -0.0008916939113513718 -0.00019965370629378812
0.651704669 -0.09699654579 -0.0009543827018881792 -0.00024553229769370185
0.6570261121 -0.09699654579 -0.001013272047053837 -0.0002940995725889414
0.6623476148 -0.09699654579 -0.001070974642137035 -0.00034477030314829194
0.6676690578 -0.09699654579 -0.0011268636072654164 -0.0003959834248396455
0.6729905009 -0.09699654579 -0.0011809415291433342 -0.00045072814421756455
0.678311944 -0.09699654579 -0.0012333054430207636 -0.0005071178169256128
0.6836334467 -0.09699654579 -0.0012833619603568607 -0.0005638077652859124
0.6889548898 -0.09699654579 -0.0013310667732242738 -0.0006222499562525184
0.6942763329 -0.09699654579 -0.001376869830388185 -0.0006816471160218385
0.6995977759 -0.09699654579 -0.0014199210294970753 -0.0007414404113456144
0.7049192786 -0.09699654579 -0.0014608901699321342 -0.0008018788006818277
0.7102407217 -0.09699654579 -0.0015001793015702444 -0.0008618749326854365
0.7155621648 -0.09699654579 -0.0015368186028397344 -0.0009215659656123231
0.7208836079 -0.09699654579 -0.001571443462302772 -0.0009807484349976477
0.7262051105 -0.09699654579 -0.0016043074111294533 -0.0010392500312834162
0.7315265536 -0.09699654579 -0.0016344089942582083 -0.0010971729979788135
0.7368479967 -0.09699654579 -0.0016658223981639451 -0.0011531680447084021
0.7421694398 -0.09699654579 -0.0016951397459663378 -0.0012056145427951617
0.7474909425 -0.09699654579 -0.0017227180720451516 -0.0012560890937944936
0.7528123856 -0.09699654579 -0.0017481373671916786 -0.001302979377877416
0.7581338286 -0.09699654579 -0.001776974105626155 -0.0013467264535504918
-0.3008363545 -0.09367749095 0.000627284025416669 0.0003849698793112818
-0.2955148816 -0.09367749095 0.0006296378836823004 0.0003770346198456032
-0.2901934385 -0.09367749095 0.0006251435879373026 0.00037392133819051795
-0.2848719656 -0.09367749095 0.0006156652071864705 0.00035826624660799145
-0.2795505226 -0.09367749095 0.0006082268021804412 0.0003335865875297449
-0.2742290497 -0.09367749095 0.0006038994397991255 0.0003028108953948052
-0.2689076066 -0.09367749095 0.0005973450525498398 0.00026689983041720865
-0.2635861337 -0.09367749095 0.0005811755775084194 0.00021609869746023306
-0.2582646906 -0.09367749095 0.0005949589161530112 0.00017992688774613494
-0.2529432178 -0.09367749095 0.000624950188612939 0.00015153154232791613