VARIABLES = X,Y,phix,phiy
ZONE I=200,J=200,F=POINT 
-0.3008363545 -0.1003156006 0.00015765961684590857 0.0007514187355748415
-0.2955148816 -0.1003156006 0.00014833667007610086 0.0007423535388989743
-0.2901934385 -0.1003156006 0.0001591833390960705 0.0007472183643448902
-0.2848719656 -0.1003156006 0.0001720972753079158 0.0007507465082475589
-0.2795505226 -0.1003156006 0.00017829340884144282 0.0007602283766468035
-0.2742290497 -0.1003156006 0.00017638360203810395 0.0007810768848135418
-0.2689076066 -0.1003156006 0.0001751264865082712 0.0008056162732898583
-0.2635861337 -0.1003156006 0.00016538508725705408 0.0007905707970336552
-0.2582646906 -0.1003156006 0.00014878552361678892 0.0007620832209575506
-0.2529432178 -0.1003156006 0.00011952730043601794 0.0007329721876137333
-0.2476217598 -0.1003156006 8.494896728773235e-05 0.0006954081163437339
-0.2423003018 -0.1003156006 5.4552914131596986e-05 0.0006620956427182541
-0.2369788438 -0.1003156006 2.452847698112129e-05 0.0006373218859825003
-0.2316573858 -0.1003156006 -3.479719368070068e-06 0.0006061343869317535
-0.2263359278 -0.1003156006 -3.6269476218647024e-05 0.000570202496777463
-0.2210144699 -0.1003156006 4.413844854889945e-06 0.0005158522316367961
-0.2156930119 -0.1003156006 5.511057264898799e-05 0.00045745109217544506
-0.2103715539 -0.1003156006 0.00010794373148195284 0.00039452440012877993
-0.2050500959 -0.1003156006 0.00012055810152099451 0.0003708239907430892
-0.1997286379 -0.1003156006 0.00014355601520109435 0.0003566313971853943
-0.19440718 -0.1003156006 0.00016202740951269367 0.000348103434588034
-0.189085722 -0.1003156006 0.0001882036375171148 0.0003488367702238985
-0.183764264 -0.1003156006 0.00020767863522338324 0.000359362139970959
-0.178442806 -0.1003156006 0.00022959619314874886 0.0003634700897032049
-0.173121348 -0.1003156006 0.0002502614474135069 0.0003469636941495851
-0.16779989 -0.1003156006 0.0002734290124942282 0.00032389786079286035
-0.1624784321 -0.1003156006 0.0002930217741770746 0.000306404932081211
-0.1571569741 -0.1003156006 0.00030642276983475355 0.000290878594173386
-0.1518355161 -0.1003156006 0.00031779666465727146 0.0002775983143660982
-0.1465140581 -0.1003156006 0.00032836196239755027 0.00026460999649208466
-0.1411926001 -0.1003156006 0.0003385301563996682 0.00025178325631430284
-0.1358711421 -0.1003156006 0.0003478779400948213 0.00024344510848786052
-0.1305496842 -0.1003156006 0.00035721764813626173 0.00023510067703198407
-0.1252282262 -0.1003156006 0.0003665388015514011 0.00022583427283831437
-0.1199067682 -0.1003156006 0.00038428684238420564 0.00020704165118427763
-0.1145853102 -0.1003156006 0.0004052676263566218 0.00018676215861325698
-0.1092638522 -0.1003156006 0.00042819417016813963 0.00016506016976817925
-0.1039423943 -0.1003156006 0.00045028335694030934 0.00014326057546042118
-0.09862093627 -0.1003156006 0.000478637594723555 0.0001251632592605899
-0.09329947084 -0.1003156006 0.0005077427256614315 0.00010722270226537575
-0.08797801286 -0.1003156006 0.0005370726279676431 8.927166112267495e-05
-0.08265655488 -0.1003156006 0.0005642412481062528 7.140382878879244e-05
-0.0773350969 -0.1003156006 0.000579803419130199 6.247784010251584e-05
-0.07201363891 -0.1003156006 0.000595349826528886 5.3487974617254514e-05
-0.06669218093 -0.1003156006 0.0006107594120741519 4.44899463849062e-05
-0.06137072667 -0.1003156006 0.0006251407706099419 3.598681723668891e-05
-0.05604926869 -0.1003156006 0.000639382634323129 2.745414223373989e-05
-0.05072781071 -0.1003156006 0.0006536105019420157 1.9499184299841455e-05
-0.045406349 -0.1003156006 0.0006675503753045243 1.1716992729948465e-05
-0.04008489102 -0.1003156006 0.0006818604693722324 3.515049300516859e-06
-0.03476343304 -0.1003156006 0.0006974057282749336 -4.604135100936159e-06
-0.02944197692 -0.1003156006 0.0007151301781362704 -1.0952797328144375e-05
-0.02412051894 -0.1003156006 0.0007331335388878918 -1.719654939741893e-05
-0.01879905909 -0.1003156006 0.0007515911004970775 -2.3261771596108424e-05
-0.01347760204 -0.1003156006 0.0007694789086484354 -2.9532721638258188e-05
-0.00815614406 -0.1003156006 0.0007827912635976785 -3.648440725334884e-05
-0.00283468538 -0.1003156006 0.00079205360535547 -4.34963232496901e-05
0.002486772602 -0.1003156006 0.0007999256724596105 -4.9942995402054e-05
0.007808230817 -0.1003156006 0.0008078959378868569 -5.638773251003943e-05
0.0131296888 -0.1003156006 0.0008168509881974196 -6.329094575157402e-05
0.01845114678 -0.1003156006 0.0008261735725991708 -7.717534617908757e-05
0.02377260476 -0.1003156006 0.0008345702923323565 -9.620351791037142e-05
0.02909406275 -0.1003156006 0.0008422855300585352 -0.00011599351345051762
0.03441552073 -0.1003156006 0.0008498249292548382 -0.0001357789229092778
0.03973697871 -0.1003156006 0.000858255197509521 -0.00015491130383790588
0.04505843669 -0.1003156006 0.0008753735590841749 -0.0001729815850366655
0.05037989467 -0.1003156006 0.0009070027076635126 -0.00018891477429192668
0.05570135266 -0.1003156006 0.0009387210652067967 -0.00020567806779593184
0.06102281436 -0.1003156006 0.0009709742654148248 -0.00022251862601527274
0.06634426862 -0.1003156006 0.0010024569655561315 -0.00023873422563376723
0.0716657266 -0.1003156006 0.0010338811238704078 -0.0002545039853111897
0.07698718458 -0.1003156006 0.001065275588855521 -0.0002512051649199543
0.08230864257 -0.1003156006 0.0010962627339528195 -0.00024617231680197226
0.08763010055 -0.1003156006 0.0011276339138737333 -0.0002407966785557403
0.09295155853 -0.1003156006 0.0011587752080022906 -0.000235806016554639
0.09827301651 -0.1003156006 0.0011896196642337338 -0.000231039539174855
0.1035944745 -0.1003156006 0.0012158322634630268 -0.00022618992688775287
0.1089159325 -0.1003156006 0.0012302587430577082 -0.00022110734226942535
0.1142373979 -0.1003156006 0.0012448093935279753 -0.00021603029030549444
0.1195588559 -0.1003156006 0.0012599424306997085 -0.00021129404837816107
0.1248803139 -0.1003156006 0.0012750593756711906 -0.0002064513082427983
0.1302017719 -0.1003156006 0.0012900355313773904 -0.00020150310926620135
0.1355232298 -0.1003156006 0.001309662662907215 -0.0002014665215300773
0.1408446878 -0.1003156006 0.0013327286584338036 -0.0002047106262556574
0.1461661458 -0.1003156006 0.0013556588737375925 -0.00020736083996698916
0.1514876038 -0.1003156006 0.0013786753526027287 -0.00020999968603011018
0.1568090618 -0.1003156006 0.001401578884935842 -0.00021264513442044002
0.1621305197 -0.1003156006 0.001424616252454606 -0.000215385613320204
0.1674519777 -0.1003156006 0.001452492332300177 -0.00020937398394150686
0.1727734357 -0.1003156006 0.0014834305347677637 -0.00019929362988042586
0.1780948937 -0.1003156006 0.0015145965815339672 -0.00018922180170136737
0.1834163517 -0.1003156006 0.0015456905060318566 -0.00017914480915607494
0.1887378097 -0.1003156006 0.001575968353554209 -0.00016911801595674534
0.1940592676 -0.1003156006 0.0016056239812849214 -0.0001590368963038251
0.1993807256 -0.1003156006 0.001622999873220447 -0.0001322427639731825
0.2047021836 -0.1003156006 0.001636376974376103 -9.974593210639875e-05
0.2100236416 -0.1003156006 0.0016496221257928194 -6.744651666590515e-05
0.2153450996 -0.1003156006 0.0016618262914327303 -3.7800350492963636e-05
0.2206665576 -0.1003156006 0.0016746990718959193 -6.994356839255855e-06
0.2259880155 -0.1003156006 0.0016875703938762177 2.3801179242376443e-05
0.2313094735 -0.1003156006 0.001670209989997086 5.0930137318339996e-05
0.2366309315 -0.1003156006 0.0016456325024234364 7.459230008306947e-05
0.2419523895 -0.1003156006 0.0016211325476215804 9.748276027418834e-05
0.2472738475 -0.1003156006 0.0015967157596429597 0.00012039083499645465
0.2525953054 -0.1003156006 0.0015704538768871975 0.0001435015310244528
0.2579167783 -0.1003156006 0.0015456288722406068 0.00016493185641009418
0.2632382214 -0.1003156006 0.0015082136937780277 0.00015240542997599382
0.2685596943 -0.1003156006 0.001466631775573001 0.000131327891150712
0.2738811374 -0.1003156006 0.0014230905937514943 0.00010999517093724853
0.2792026103 -0.1003156006 0.0013814117595746616 8.889087529208283e-05
0.2845240533 -0.1003156006 0.0013434378187127398 6.799483105296162e-05
0.2898455262 -0.1003156006 0.001305809695702342 4.7096440025025956e-05
0.2951669693 -0.1003156006 0.0012848274302326562 -6.3642999439243074e-06
0.3004884422 -0.1003156006 0.0012667624210399026 -6.4464263215715e-05
0.3058098853 -0.1003156006 0.0012523789523910026 -0.00011928784282597955
0.3111313581 -0.1003156006 0.001238016792658687 -0.00017407836225593514
0.3164528012 -0.1003156006 0.0012237388122340429 -0.00022888634147196765
0.3217742741 -0.1003156006 0.0012098033593542336 -0.00028397378055539156
0.3270957172 -0.1003156006 0.0012369702422776953 -0.00035098834660765924
0.3324171901 -0.1003156006 0.0012640583033270922 -0.00041792031325786215
0.3377386332 -0.1003156006 0.0012913295509296213 -0.00048486019905814604
0.343060106 -0.1003156006 0.0013182804483243792 -0.0005518079463561506
0.3483815491 -0.1003156006 0.0013450532097649696 -0.0006135417630476798
0.353703022 -0.1003156006 0.0013848484244575882 -0.0006684594937303907
0.3590244651 -0.1003156006 0.001453385992904566 -0.0007083707649674754
0.364345938 -0.1003156006 0.0015220584302150304 -0.0007483294950459048
0.369667381 -0.1003156006 0.0015859932324802284 -0.0007854647783672385
0.3749888539 -0.1003156006 0.0016509815595120076 -0.0008233999219375975
0.380310297 -0.1003156006 0.0017166604157552003 -0.0008614962326078801
0.3856317699 -0.1003156006 0.0017867617844143046 -0.0008659206731766938
0.390953213 -0.1003156006 0.0018539959807663327 -0.0008614347827260659
0.3962746859 -0.1003156006 0.0019204387556613644 -0.0008570357856416849
0.4015961289 -0.1003156006 0.001986869568131325 -0.0008528936487431614
0.4069176018 -0.1003156006 0.0020524966669449017 -0.0008491607323141827
0.4122390449 -0.1003156006 0.0021052740077097116 -0.000839685979648845
0.4175605178 -0.1003156006 0.0021450656596872773 -0.0008184848420268194
0.4228819609 -0.1003156006 0.002184895066069563 -0.000796369269400194
0.4282034338 -0.1003156006 0.0022246095492786484 -0.0007743505881786299
0.4335248768 -0.1003156006 0.0022640572033898547 -0.0007550722141498299
0.4388463497 -0.1003156006 0.00229853921086773 -0.0007356874836538187
0.4441677928 -0.1003156006 0.002321457200089529 -0.000715951712393591
0.4494892657 -0.1003156006 0.002344488635084069 -0.0006962477882467133
0.4548107088 -0.1003156006 0.0023678974989305283 -0.0006774802629331979
0.4601321816 -0.1003156006 0.0023911710887153997 -0.0006583729228656709
0.4654536247 -0.1003156006 0.0024122235085062846 -0.0006395255907859817
0.4707750976 -0.1003156006 0.0024292751435214715 -0.0006211067787721107
0.4760965407 -0.1003156006 0.0024468115225841905 -0.0006035172603939964
0.4814180136 -0.1003156006 0.002464251381159255 -0.0005859511229590358
0.4867394567 -0.1003156006 0.002481694133534256 -0.0005681288836640514
0.4920609295 -0.1003156006 0.002493493151631491 -0.0005493870750593169
0.4973823726 -0.1003156006 0.0025044848973869906 -0.0005312273700568301
0.5027038455 -0.1003156006 0.002515714800539849 -0.0005129231490525319
0.5080252886 -0.1003156006 0.0025267746393107904 -0.0004945866276563033
0.5133467317 -0.1003156006 0.002533719783465996 -0.0004788812519329913
0.5186682343 -0.1003156006 0.002533061130610231 -0.00046322151977494627
0.5239896774 -0.1003156006 0.002532927294121604 -0.0004476033730776838
0.5293111205 -0.1003156006 0.0025328299424443854 -0.00043235740091790057
0.5346325636 -0.1003156006 0.002530281711390389 -0.00042248602864900615
0.5399540663 -0.1003156006 0.002520055197579093 -0.00041621932132496995
0.5452755094 -0.1003156006 0.002509286536292596 -0.00040961267929493026
0.5505969524 -0.1003156006 0.0025002010582818204 -0.0004037949741228312
0.5559183955 -0.1003156006 0.0024890017208440206 -0.0004077275039624236
0.5612398982 -0.1003156006 0.0024728962665538624 -0.00041425395833135135
0.5665613413 -0.1003156006 0.0024570727565312424 -0.00042079081289980453
0.5718827844 -0.1003156006 0.0024452768639940214 -0.0004327921443475436
0.5772042274 -0.1003156006 0.002429321230953991 -0.0004529098139369222
0.5825257301 -0.1003156006 0.002413449086408653 -0.00047309596419946656
0.5878471732 -0.1003156006 0.002400391630855423 -0.0004982305343471928
0.5931686163 -0.1003156006 0.0023869406702789657 -0.0005305289455662048
0.5984900594 -0.1003156006 0.002373565583831492 -0.0005624011928416899
0.6038115621 -0.1003156006 0.002361867658684012 -0.0006047183965959882
0.6091330051 -0.1003156006 0.002352532619554669 -0.0006487998548658009
0.6144544482 -0.1003156006 0.0023423912725172675 -0.000700415767878244
0.6197758913 -0.1003156006 0.002336301275193436 -0.0007578680607534911
0.625097394 -0.1003156006 0.0023324441485957736 -0.0008195151349355022
0.6304188371 -0.1003156006 0.002331104250906609 -0.0008909432249679442
0.6357402802 -0.1003156006 0.0023357365895059004 -0.0009649152895037556
0.6410617828 -0.1003156006 0.002343806528885135 -0.001046946582722482
0.6463832259 -0.1003156006 0.0023550491008381205 -0.0011355125854127371
0.651704669 -0.1003156006 0.0023693700733926552 -0.0012293714336221824
0.6570261121 -0.1003156006 0.00239460919192332 -0.0013309892616845877
0.6623476148 -0.1003156006 0.002425620848002252 -0.0014397492325702661
0.6676690578 -0.1003156006 0.0024621382878467347 -0.0015550851540788151
0.6729905009 -0.1003156006 0.002511978367403179 -0.0016793348580836551
0.678311944 -0.1003156006 0.0025717390525456397 -0.0018074058696391003
0.6836334467 -0.1003156006 0.002640542636561329 -0.0019431043495235904
0.6889548898 -0.1003156006 0.0027232959736619477 -0.0020887624879137143
0.6942763329 -0.1003156006 0.0028213667278395656 -0.0022378620374747834
0.6995977759 -0.1003156006 0.0029336840811286955 -0.002393941594565757
0.7049192786 -0.1003156006 0.003060694573804462 -0.00255409125733887
0.7102407217 -0.1003156006 0.0032095706056311383 -0.0027203309251810793
0.7155621648 -0.1003156006 0.003381785449492448 -0.0028889813942748178
0.7208836079 -0.1003156006 0.003575305991492952 -0.003056044772116554
0.7262051105 -0.1003156006 0.0037918106222533067 -0.0032229798079724944
0.7315265536 -0.1003156006 0.0040362400733371774 -0.003387766558592742
0.7368479967 -0.1003156006 0.00431837978855138 -0.0035450872988350935
0.7421694398 -0.1003156006 0.004628695110418093 -0.003695735868907334
0.7474909425 -0.1003156006 0.004955740483304505 -0.003825272172448998
0.7528123856 -0.1003156006 0.005326194251206999 -0.003940194169919035
0.7581338286 -0.1003156006 0.0057296791585436475 -0.004036355657716814
-0.3008363545 -0.09699654579 0.0001563347059818712 0.0007527142009794984
-0.2955148816 -0.09699654579 0.00014794824934864954 0.0007400890922262718
-0.2901934385 -0.09699654579 0.00014960598090782909 0.0007333171397794938
-0.2848719656 -0.09699654579 0.00015944356078525729 0.0007391130651786789
-0.2795505226 -0.09699654579 0.00016828650680247934 0.0007488048919768394
-0.2742290497 -0.09699654579 0.00017085652717640506 0.000766702429371628
-0.2689076066 -0.09699654579 0.0001681697986732631 0.0007959180413073495
-0.2635861337 -0.09699654579 0.0001624580743404008 0.0008116125886321605
-0.2582646906 -0.09699654579 0.00015800854705997055 0.0007834274717113592
-0.2529432178 -0.09699654579 0.00012811141398655308 0.0007508241610168919
-0.2476217598 -0.09699654579 8.955748334723345e-05 0.0007044606067095846
-0.2423003018 -0.09699654579 4.785600767973876e-05 0.0006587632185036268
-0.2369788438 -0.09699654579 3.053351520312337e-05 0.0006293316178017968
-0.2316573858 -0.09699654579 -7.327451346269208e-06 0.0005971795883186766
-0.2263359278 -0.09699654579 -4.3709196433365035e-05 0.0005622621773427598
-0.2210144699 -0.09699654579 -4.984768073116783e-06 0.000506617180057938
-0.2156930119 -0.09699654579 4.7465865651962906e-05 0.00044323589143312474
-0.2103715539 -0.09699654579 0.00011713709537444991 0.0003814112898157668
-0.2050500959 -0.09699654579 0.00015246825018780356 0.00035506894465768226
-0.1997286379 -0.09699654579 0.00017066493381348835 0.00034678489517783463
-0.19440718 -0.09699654579 0.00018558076700231116 0.0003340533644072543
-0.189085722 -0.09699654579 0.00020821120670915918 0.0003286046595662418
-0.183764264 -0.09699654579 0.00023345234480369968 0.0003276905679588332
-0.178442806 -0.09699654579 0.00025690430694863195 0.00033404189586340926
-0.173121348 -0.09699654579 0.0002776915279793637 0.00032103895531244574
-0.16779989 -0.09699654579 0.00029450827731037564 0.00030585644708521745
-0.1624784321 -0.09699654579 0.00030994271070018377 0.0002929695269390032
-0.1571569741 -0.09699654579 0.0003172975966260383 0.000283110399139192
-0.1518355161 -0.09699654579 0.0003250303497401501 0.0002721081641571806
-0.1465140581 -0.09699654579 0.0003337309526133532 0.0002606126364454635
-0.1411926001 -0.09699654579 0.00034106426792979594 0.00024937099900858355
-0.1358711421 -0.09699654579 0.00035019858450592475 0.0002399053290087372
-0.1305496842 -0.09699654579 0.0003586480316989175 0.00022999675492622713
-0.1252282262 -0.09699654579 0.00036320387385736037 0.00021989147191658887
-0.1199067682 -0.09699654579 0.0003784768435146386 0.00019806957278499485
-0.1145853102 -0.09699654579 0.00039639901117626724 0.00017547141763419845
-0.1092638522 -0.09699654579 0.00041551671603094525 0.00015214222267439094
-0.1039423943 -0.09699654579 0.00043631301332625863 0.0001265808207221508
-0.09862093627 -0.09699654579 0.0004616660141050117 0.00010922208413022386
-0.09329947084 -0.09699654579 0.00048778548395666854 9.245285989466864e-05
-0.08797801286 -0.09699654579 0.0005143829762801488 7.629514643400255e-05
-0.08265655488 -0.09699654579 0.0005397667286559791 5.94240876662317e-05
-0.0773350969 -0.09699654579 0.0005537823297664048 5.105020661900307e-05
-0.07201363891 -0.09699654579 0.0005669257054010937 4.2962135447084626e-05
-0.06669218093 -0.09699654579 0.0005792863184184873 3.4899133419004325e-05
-0.06137072667 -0.09699654579 0.0005896980469674933 2.7305692659768294e-05
-0.05604926869 -0.09699654579 0.0006019977632441297 1.8567478631235513e-05
-0.05072781071 -0.09699654579 0.0006147181530196965 1.0274125675710722e-05
-0.045406349 -0.09699654579 0.0006271437903644331 1.979020275282495e-06
-0.04008489102 -0.09699654579 0.0006405225786771995 -6.743885888694123e-06
-0.03476343304 -0.09699654579 0.000656211433133415 -1.5245293469086208e-05
-0.02944197692 -0.09699654579 0.000674824989781806 -2.0759731212103296e-05
-0.02412051894 -0.09699654579 0.0006931520789784481 -2.6326766831608132e-05
-0.01879905909 -0.09699654579 0.000711754686743414 -3.1853983953712936e-05
-0.01347760204 -0.09699654579 0.0007307452807965095 -3.7227068108004724e-05
-0.00815614406 -0.09699654579 0.0007434050993590567 -4.321920846294776e-05
-0.00283468538 -0.09699654579 0.0007504546300814361 -4.9262035879968075e-05
0.002486772602 -0.09699654579 0.0007573819213013929 -5.5147696403340484e-05
0.007808230817 -0.09699654579 0.0007642484813370803 -6.0955382354627575e-05
0.0131296888 -0.09699654579 0.0007712111773084114 -6.69228529286951e-05
0.01845114678 -0.09699654579 0.0007786149632892097 -8.166516217790111e-05
0.02377260476 -0.09699654579 0.0007857763153305892 -0.00010251856528897429
0.02909406275 -0.09699654579 0.0007928263400752893 -0.0001240778771578219
0.03441552073 -0.09699654579 0.0007999931341933157 -0.00014573786939885833
0.03973697871 -0.09699654579 0.0008073581072613898 -0.00016663929883957762
0.04505843669 -0.09699654579 0.0008248438356310922 -0.00018670052279218068
0.05037989467 -0.09699654579 0.0008587188350794476 -0.00020463058055743212
0.05570135266 -0.09699654579 0.0008930059634675343 -0.00022280486512622175
0.06102281436 -0.09699654579 0.0009280803387599819 -0.00024148107950896307
0.06634426862 -0.09699654579 0.0009618839593473122 -0.0002592445017480677
0.0716657266 -0.09699654579 0.0009955471249271665 -0.00027700380630384797
0.07698718458 -0.09699654579 0.0010290945708120642 -0.0002717857471016555
0.08230864257 -0.09699654579 0.001062108455149274 -0.0002650170651894331
0.08763010055 -0.09699654579 0.0010947992765961581 -0.0002586785174958478
0.09295155853 -0.09699654579 0.001127698727602843 -0.00025237017256932127
0.09827301651 -0.09699654579 0.0011602391311742743 -0.0002459492239306313
0.1035944745 -0.09699654579 0.001186508331565471 -0.00023979270529414076
0.1089159325 -0.09699654579 0.001200031886094259 -0.0002341520061602526
0.1142373979 -0.09699654579 0.0012134143797633496 -0.00022881181194987725
0.1195588559 -0.09699654579 0.0012265360555031156 -0.0002236703410838666
0.1248803139 -0.09699654579 0.0012397174786740464 -0.00021852244512472884
0.1302017719 -0.09699654579 0.0012530565816570782 -0.00021323230281517064
0.1355232298 -0.09699654579 0.0012721667766232088 -0.00021440431690022626
0.1408446878 -0.09699654579 0.0012935137000334058 -0.00021852205373241353
0.1461661458 -0.09699654579 0.0013151245130211234 -0.00022268813630541346
0.1514876038 -0.09699654579 0.0013385296604883044 -0.00022675139945912192
0.1568090618 -0.09699654579 0.0013616243107864297 -0.00023080870437156183
0.1621305197 -0.09699654579 0.0013847418306915616 -0.00023432082605972178
0.1674519777 -0.09699654579 0.001416406141872715 -0.0002275810372499773
0.1727734357 -0.09699654579 0.0014506837288619336 -0.00021690376088411722
0.1780948937 -0.09699654579 0.001486256901615394 -0.00020617865959427837
0.1834163517 -0.09699654579 0.0015210911277343093 -0.0001954903417053388
0.1887378097 -0.09699654579 0.0015542940022206546 -0.0001849848008562235
0.1940592676 -0.09699654579 0.0015872904808419462 -0.00017445871902405994
0.1993807256 -0.09699654579 0.0016073922776778094 -0.00014330373413647967
0.2047021836 -0.09699654579 0.0016238388924347776 -0.00010626443710912203
0.2100236416 -0.09699654579 0.00163780442440593 -7.217232570314283e-05
0.2153450996 -0.09699654579 0.0016518915844766459 -3.8177532832677256e-05
0.2206665576 -0.09699654579 0.0016657594806327562 -4.186703860346921e-06
0.2259880155 -0.09699654579 0.0016793622361123606 2.9859263487123782e-05
0.2313094735 -0.09699654579 0.001660224244881344 5.8662384235090876e-05
0.2366309315 -0.09699654579 0.0016325663825296078 8.600316220233199e-05
0.2419523895 -0.09699654579 0.001605023704383439 0.00011332451144206886
0.2472738475 -0.09699654579 0.0015773933653172008 0.0001406693477058476
0.2525953054 -0.09699654579 0.0015513292548028225 0.0001660975333993023
0.2579167783 -0.09699654579 0.0015261664348047656 0.00019024759125827695
0.2632382214 -0.09699654579 0.0014837369952872613 0.00017616256720477292
0.2685596943 -0.09699654579 0.0014376306579430888 0.0001539159212347397
0.2738811374 -0.09699654579 0.0013933544265638093 0.00013211072973715184
0.2792026103 -0.09699654579 0.0013521677676993568 0.00011055875946793236
0.2845240533 -0.09699654579 0.0013102698514683632 8.90945194907596e-05
0.2898455262 -0.09699654579 0.001267091138981964 6.7262830248222e-05
0.2951669693 -0.09699654579 0.001244645720853817 9.06429302504721e-06
0.3004884422 -0.09699654579 0.0012267003957797493 -5.1185845998063994e-05
0.3058098853 -0.09699654579 0.0012068074276382899 -0.00011135016402545951
0.3111313581 -0.09699654579 0.0011874022996482235 -0.00017152736239801753
0.3164528012 -0.09699654579 0.001168994724019376 -0.0002302370063985396
0.3217742741 -0.09699654579 0.0011555448946034025 -0.00028768945174115657
0.3270957172 -0.09699654579 0.001185714157188864 -0.0003604916860529186
0.3324171901 -0.09699654579 0.0012156615716216177 -0.0004333091905705648
0.3377386332 -0.09699654579 0.0012455037732050035 -0.0005040508471317739
0.343060106 -0.09699654579 0.0012751673487271448 -0.0005728121246338656
0.3483815491 -0.09699654579 0.001305081757579801 -0.0006418878750263042
0.353703022 -0.09699654579 0.0013519747351551433 -0.0007026186441391824
0.3590244651 -0.09699654579 0.0014285007132743984 -0.000745564463948156
0.364345938 -0.09699654579 0.001501937805531458 -0.0007863086347158554
0.369667381 -0.09699654579 0.0015750253863566282 -0.0008272176780493619
0.3749888539 -0.09699654579 0.0016460383250829808 -0.0008685593298641445
0.380310297 -0.09699654579 0.0017142596563028715 -0.0009085240393135239
0.3856317699 -0.09699654579 0.0017847296065850787 -0.0009113262233226727
0.390953213 -0.09699654579 0.00185665481420667 -0.0009044378673533883
0.3962746859 -0.09699654579 0.0019301660573275985 -0.0008965496931233084
0.4015961289 -0.09699654579 0.0020010976991847373 -0.0008902810473015936
0.4069176018 -0.09699654579 0.0020697943643293274 -0.0008848017314011333
0.4122390449 -0.09699654579 0.002126638288112344 -0.0008705778380348059
0.4175605178 -0.09699654579 0.002167778553267592 -0.0008449563043063535
0.4228819609 -0.09699654579 0.002208712144502636 -0.0008217479147382001
0.4282034338 -0.09699654579 0.002249253500609464 -0.0007994314918136086
0.4335248768 -0.09699654579 0.0022899391296893295 -0.000776815461224905
0.4388463497 -0.09699654579 0.0023252280107036428 -0.0007534819905164986
0.4441677928 -0.09699654579 0.002348705871599546 -0.0007326176227091844
0.4494892657 -0.09699654579 0.00237116954506573 -0.0007120205254683216
0.4548107088 -0.09699654579 0.002393709114883948 -0.0006914898246694227
0.4601321816 -0.09699654579 0.002416246576782607 -0.0006709893075568252
0.4654536247 -0.09699654579 0.0024370097352838255 -0.0006521557158682657
0.4707750976 -0.09699654579 0.0024540355081270073 -0.0006332825754104358
0.4760965407 -0.09699654579 0.002471323937659703 -0.0006142614631664445
0.4814180136 -0.09699654579 0.0024884224583439493 -0.0005953540039176908
0.4867394567 -0.09699654579 0.0025057898193620995 -0.0005772452535771441
0.4920609295 -0.09699654579 0.0025175025554072315 -0.0005576922737409721
0.4973823726 -0.09699654579 0.002528104317231387 -0.000537636465296554
0.5027038455 -0.09699654579 0.0025381445685799865 -0.0005179295681761927
0.5080252886 -0.09699654579 0.002548776952726412 -0.0004984745088339748
0.5133467317 -0.09699654579 0.0025535027218794005 -0.00047988435218262776
0.5186682343 -0.09699654579 0.0025512788420686398 -0.00046230707398168505
0.5239896774 -0.09699654579 0.0025506006257646494 -0.00044683265840386797
0.5293111205 -0.09699654579 0.002549016905905869 -0.00043022408197422644
0.5346325636 -0.09699654579 0.002541821802131056 -0.0004170478820743237
0.5399540663 -0.09699654579 0.002529380393936788 -0.000410005879634398
0.5452755094 -0.09699654579 0.002518443353960363 -0.00040352196676649515
0.5505969524 -0.09699654579 0.002505831967042073 -0.0003964159876447927
0.5559183955 -0.09699654579 0.0024880571025098492 -0.0003988754309470634
0.5612398982 -0.09699654579 0.002471950462589869 -0.0004052572176797412
0.5665613413 -0.09699654579 0.002455508729078036 -0.00041156787568661637
0.5718827844 -0.09699654579 0.0024356072005988355 -0.00042295891087936783
0.5772042274 -0.09699654579 0.0024187091004885387 -0.0004428370507161141
0.5825257301 -0.09699654579 0.0024017684701365507 -0.0004627072576321017
0.5878471732 -0.09699654579 0.0023828250620798854 -0.00048772675073190076
0.5931686163 -0.09699654579 0.0023671216890787396 -0.0005204384622226647
0.5984900594 -0.09699654579 0.0023493112394329507 -0.0005540368725996802
0.6038115621 -0.09699654579 0.002335157816974588 -0.0005958884537660882
0.6091330051 -0.09699654579 0.0023202208739670585 -0.0006435754078062527
0.6144544482 -0.09699654579 0.002308950130102016 -0.0006935346089876348
0.6197758913 -0.09699654579 0.0022984691704614063 -0.0007549040505201988
0.625097394 -0.09699654579 0.0022901454625953964 -0.0008179047283575065
0.6304188371 -0.09699654579 0.002286515052328077 -0.0008899084511672741
0.6357402802 -0.09699654579 0.0022826446554886277 -0.000967457443784625
0.6410617828 -0.09699654579 0.002287168257673535 -0.0010502933712081052
0.6463832259 -0.09699654579 0.002293962898438523 -0.001142537260764221
0.651704669 -0.09699654579 0.0023044936437897593 -0.0012411677446952844
0.6570261121 -0.09699654579 0.002326312808910647 -0.0013485925672409476
0.6623476148 -0.09699654579 0.0023532307751036505 -0.0014612868373470587
0.6676690578 -0.09699654579 0.0023870736291362925 -0.0015813330306387167
0.6729905009 -0.09699654579 0.0024304884119227084 -0.0017092446865088198
0.678311944 -0.09699654579 0.0024822256454017965 -0.0018463106802591204
0.6836334467 -0.09699654579 0.002545017359660046 -0.001988836415704644
0.6889548898 -0.09699654579 0.002623246013819065 -0.0021400662916672363
0.6942763329 -0.09699654579 0.0027161460497471417 -0.002299091978697865
0.6995977759 -0.09699654579 0.002823789377833849 -0.002467059555037995
0.7049192786 -0.09699654579 0.002948241786616418 -0.0026390854823222687
0.7102407217 -0.09699654579 0.0030936048657334426 -0.002815924078878587
0.7155621648 -0.09699654579 0.0032667062732677434 -0.002997922882451053
0.7208836079 -0.09699654579 0.003461702413800215 -0.0031857731045413797
0.7262051105 -0.09699654579 0.003683212992306608 -0.003371985798966158
0.7315265536 -0.09699654579 0.003929895704399079 -0.0035536694797736676
0.7368479967 -0.09699654579 0.004210215330040665 -0.0037322339874764324
0.7421694398 -0.09699654579 0.004524975580179437 -0.003897460582027813
0.7474909425 -0.09699654579 0.0048715870896060155 -0.004053224269986783
0.7528123856 -0.09699654579 0.005254739052881214 -0.004186003343136548
0.7581338286 -0.09699654579 0.005669389876694716 -0.004297665152218478
-0.3008363545 -0.09367749095 0.00015662082184632675 0.000755655271897163
-0.2955148816 -0.09367749095 0.0001530393177041205 0.0007405688523994515
-0.2901934385 -0.09367749095 0.00014900309714699545 0.0007231197000268092
-0.2848719656 -0.09367749095 0.00015323358831790054 0.0007239551417203239
-0.2795505226 -0.09367749095 0.00015964118662852502 0.000732063239883012
-0.2742290497 -0.09367749095 0.00016749648172631706 0.000756228191535279
-0.2689076066 -0.09367749095 0.00016963876945357971 0.0007835887037954666
-0.2635861337 -0.09367749095 0.00018101034712840447 0.0008184109220833039
-0.2582646906 -0.09367749095 0.00016445362182425987 0.0008023081601532896
-0.2529432178 -0.09367749095 0.0001476170970609294 0.0007715154511453659
-0.2476217598 -0.09367749095 0.0001087165419974598 0.000726677939250242
-0.2423003018 -0.09367749095 7.31642275011717e-05 0.0006553103939824452