VARIABLES = X,Y,phix,phiy
ZONE I=200,J=200,F=POINT 
-0.3008363545 -0.1003156006 -0.00022163313371011137 -0.0013752003070152219
-0.2955148816 -0.1003156006 -0.00017674127370970736 -0.001382356357060523
-0.2901934385 -0.1003156006 -0.00013378474493435646 -0.0013825536764351552
-0.2848719656 -0.1003156006 -8.878296521744544e-05 -0.0013823179589991475
-0.2795505226 -0.1003156006 -3.998568958465985e-05 -0.0013773295729479632
-0.2742290497 -0.1003156006 1.1540673446540466e-05 -0.0013659170797329378
-0.2689076066 -0.1003156006 6.651257876058891e-05 -0.0013529083700663945
-0.2635861337 -0.1003156006 0.00011206276186319682 -0.0013339460990898517
-0.2582646906 -0.1003156006 0.00015808849525868313 -0.0013074866447139917
-0.2529432178 -0.1003156006 0.00020492782364326133 -0.0012768205381831436
-0.2476217598 -0.1003156006 0.00025333556961176806 -0.0012428344263610966
-0.2423003018 -0.1003156006 0.00029240712890657314 -0.0012045929976573393
-0.2369788438 -0.1003156006 0.00032639997954822406 -0.0011624223790270497
-0.2316573858 -0.1003156006 0.0003614833823237154 -0.0011161320174795186
-0.2263359278 -0.1003156006 0.0003922829304492984 -0.0010670960184119983
-0.2210144699 -0.1003156006 0.0004112159136257693 -0.001019461960419378
-0.2156930119 -0.1003156006 0.0004299352983698333 -0.0009694413772345236
-0.2103715539 -0.1003156006 0.00044635224266343764 -0.0009160830937288651
-0.2050500959 -0.1003156006 0.0004514516697174058 -0.000869643579589936
-0.1997286379 -0.1003156006 0.0004560802925362883 -0.0008211231174480455
-0.19440718 -0.1003156006 0.00045845256998662233 -0.0007705569017653426
-0.189085722 -0.1003156006 0.000454863615308821 -0.0007281836663274352
-0.183764264 -0.1003156006 0.00044835287122420043 -0.0006851072023036811
-0.178442806 -0.1003156006 0.0004419601359194437 -0.0006418602802530475
-0.173121348 -0.1003156006 0.0004303684833363823 -0.0006043062611965293
-0.16779989 -0.1003156006 0.0004189004259318858 -0.0005683348663016424
-0.1624784321 -0.1003156006 0.0004055738360672516 -0.0005317545217171825
-0.1571569741 -0.1003156006 0.00039094733356104776 -0.0005000005393760426
-0.1518355161 -0.1003156006 0.00037471397016121947 -0.00047035748631818594
-0.1465140581 -0.1003156006 0.00035797748933924484 -0.0004406183107887534
-0.1411926001 -0.1003156006 0.00034114835490111646 -0.0004130590745831255
-0.1358711421 -0.1003156006 0.00032368799175492533 -0.0003896276041047104
-0.1305496842 -0.1003156006 0.0003062269834819545 -0.00036619611455434296
-0.1252282262 -0.1003156006 0.0002879505760082938 -0.0003428162843625517
-0.1199067682 -0.1003156006 0.00027011529910638167 -0.0003238538475118068
-0.1145853102 -0.1003156006 0.00025237763344110873 -0.00030580487395382447
-0.1092638522 -0.1003156006 0.00023419006551600913 -0.00028783882456543953
-0.1039423943 -0.1003156006 0.0002162151731781389 -0.00027020617446639754
-0.09862093627 -0.1003156006 0.00019925895502254554 -0.0002564047992353472
-0.09329947084 -0.1003156006 0.0001818518763865652 -0.00024276098633977606
-0.08797801286 -0.1003156006 0.00016444481519280033 -0.00022911720202136682
-0.08265655488 -0.1003156006 0.0001471723139102893 -0.00021577033895484003
-0.0773350969 -0.1003156006 0.0001310781419930814 -0.00020535305406936227
-0.07201363891 -0.1003156006 0.00011496332957411818 -0.00019495773285214453
-0.06669218093 -0.1003156006 9.884850711787474e-05 -0.0001845623920264286
-0.06137072667 -0.1003156006 8.247762735005365e-05 -0.00017429851978741903
-0.05604926869 -0.1003156006 6.734971169993662e-05 -0.00016614233115916442
-0.05072781071 -0.1003156006 5.247323304794888e-05 -0.0001583274166682102
-0.045406349 -0.1003156006 3.766991250232995e-05 -0.00015046920716177845
-0.04008489102 -0.1003156006 2.267289959901925e-05 -0.0001427414186725003
-0.03476343304 -0.1003156006 8.184743515031027e-06 -0.00013565832601987444
-0.02944197692 -0.1003156006 -5.405903660822318e-06 -0.00012978702091970474
-0.02412051894 -0.1003156006 -1.9038020992230113e-05 -0.00012394811291414998
-0.01879905909 -0.1003156006 -3.272538505142555e-05 -0.0001181489848738057
-0.01347760204 -0.1003156006 -4.635808232298916e-05 -0.00011231185356619318
-0.00815614406 -0.1003156006 -5.9236523501931556e-05 -0.00010732306194785708
-0.00283468538 -0.1003156006 -7.163615711596629e-05 -0.0001029122339812392
0.002486772602 -0.1003156006 -8.414262950685004e-05 -9.859763288422847e-05
0.007808230817 -0.1003156006 -9.664694839663096e-05 -9.428028898515753e-05
0.0131296888 -0.1003156006 -0.00010906507277015171 -8.988653592310483e-05
0.01845114678 -0.1003156006 -0.00012083096242678259 -8.61462765941281e-05
0.02377260476 -0.1003156006 -0.0001322212146210737 -8.286169765082973e-05
0.02909406275 -0.1003156006 -0.00014366264203092007 -7.962207885523987e-05
0.03441552073 -0.1003156006 -0.0001551039495221813 -7.638244641518485e-05
0.03973697871 -0.1003156006 -0.0001665003576572332 -7.310282634890616e-05
0.04505843669 -0.1003156006 -0.00017752096241022494 -7.013365115278316e-05
0.05037989467 -0.1003156006 -0.0001880276983334911 -6.77057461244705e-05
0.05570135266 -0.1003156006 -0.00019858503453622103 -6.533486196182538e-05
0.06102281436 -0.1003156006 -0.00020914287509975823 -6.295866486492804e-05
0.06634426862 -0.1003156006 -0.0002196710569827128 -6.055822245555643e-05
0.0716657266 -0.1003156006 -0.00023017031238064007 -5.8124071596698406e-05
0.07698718458 -0.1003156006 -0.000239938333928158 -5.6302639063604373e-05
0.08230864257 -0.1003156006 -0.00024969514666334464 -5.450744350447238e-05
0.08763010055 -0.1003156006 -0.0002594832631140312 -5.2757127648044576e-05
0.09295155853 -0.1003156006 -0.00026924840231412893 -5.097921836183e-05
0.09827301651 -0.1003156006 -0.00027899417499824123 -4.917211223039421e-05
0.1035944745 -0.1003156006 -0.0002885222592848173 -4.752084955681763e-05
0.1089159325 -0.1003156006 -0.000297702745969093 -4.6152826801895796e-05
0.1142373979 -0.1003156006 -0.000306884437578345 -4.4784760882720704e-05
0.1195588559 -0.1003156006 -0.00031604146497625523 -4.339992821081079e-05
0.1248803139 -0.1003156006 -0.00032521084340042305 -4.2032465282332994e-05
0.1302017719 -0.1003156006 -0.0003343804678152556 -4.065297768902659e-05
0.1355232298 -0.1003156006 -0.0003433307098556834 -3.9512546400937466e-05
0.1408446878 -0.1003156006 -0.000352161318561491 -3.854228388885454e-05
0.1461661458 -0.1003156006 -0.0003609620480773214 -3.754198498693192e-05
0.1514876038 -0.1003156006 -0.000369762131779066 -3.654169904928611e-05
0.1568090618 -0.1003156006 -0.0003785625703352163 -3.554141290866857e-05
0.1621305197 -0.1003156006 -0.00038736034232757927 -3.454276492358874e-05
0.1674519777 -0.1003156006 -0.00039596176184060586 -3.387487619408887e-05
0.1727734357 -0.1003156006 -0.00040451063456545044 -3.329139006017912e-05
0.1780948937 -0.1003156006 -0.0004130608125397677 -3.270789791865565e-05
0.1834163517 -0.1003156006 -0.0004216092482804653 -3.212440370151447e-05
0.1887378097 -0.1003156006 -0.00043015053380108273 -3.155159266272823e-05
0.1940592676 -0.1003156006 -0.0004386612442713416 -3.094702185371305e-05
0.1993807256 -0.1003156006 -0.00044698659883858556 -3.0618386803463185e-05
0.2047021836 -0.1003156006 -0.00045528158384297243 -3.03725523682017e-05
0.2100236416 -0.1003156006 -0.0004635805878503674 -3.013065290700429e-05
0.2153450996 -0.1003156006 -0.0004718527618291988 -2.9904962983995283e-05
0.2206665576 -0.1003156006 -0.0004801313690684496 -2.9650866238241892e-05
0.2259880155 -0.1003156006 -0.0004884102642338022 -2.9397533114818113e-05
0.2313094735 -0.1003156006 -0.00049660675823207 -2.9348190337279498e-05
0.2366309315 -0.1003156006 -0.0005047858027793851 -2.9369670425838488e-05
0.2419523895 -0.1003156006 -0.0005129525105325155 -2.9376905530013276e-05
0.2472738475 -0.1003156006 -0.0005211157439657227 -2.9384911889307827e-05
0.2525953054 -0.1003156006 -0.0005292777293443235 -2.938905424973575e-05
0.2579167783 -0.1003156006 -0.0005374302369597837 -2.9408788364165264e-05
0.2632382214 -0.1003156006 -0.0005455803281410598 -2.9650392080003327e-05
0.2685596943 -0.1003156006 -0.0005537561865830047 -2.99643526563985e-05
0.2738811374 -0.1003156006 -0.000561942036883722 -3.0261475141292515e-05
0.2792026103 -0.1003156006 -0.0005701219739724331 -3.057436021304083e-05
0.2845240533 -0.1003156006 -0.0005782732581542764 -3.087819197204383e-05
0.2898455262 -0.1003156006 -0.000586426090220628 -3.118198508760437e-05
0.2951669693 -0.1003156006 -0.0005946616239630983 -3.173611978388848e-05
0.3004884422 -0.1003156006 -0.0006029232726446328 -3.23417876483816e-05
0.3058098853 -0.1003156006 -0.0006111518259090006 -3.295101351117897e-05
0.3111313581 -0.1003156006 -0.0006193806335039647 -3.356017888456588e-05
0.3164528012 -0.1003156006 -0.0006276086096787082 -3.416942417804578e-05
0.3217742741 -0.1003156006 -0.0006358316932142881 -3.480413321501879e-05
0.3270957172 -0.1003156006 -0.0006442186320845841 -3.575179464307007e-05
0.3324171901 -0.1003156006 -0.00065260507101063 -3.668915392126666e-05
0.3377386332 -0.1003156006 -0.0006609920784574647 -3.7626425610921156e-05
0.343060106 -0.1003156006 -0.0006693799278332123 -3.856584983900322e-05
0.3483815491 -0.1003156006 -0.0006777298939866947 -3.9534737303915077e-05
0.353703022 -0.1003156006 -0.0006861329409035862 -4.059791190912686e-05
0.3590244651 -0.1003156006 -0.0006946933579060649 -4.188366295051571e-05
0.364345938 -0.1003156006 -0.0007032544795703642 -4.316925581107402e-05
0.369667381 -0.1003156006 -0.0007117850346112046 -4.449440848243971e-05
0.3749888539 -0.1003156006 -0.0007203243751364027 -4.581318770227049e-05
0.380310297 -0.1003156006 -0.0007288635464453716 -4.7117370630773274e-05
0.3856317699 -0.1003156006 -0.0007376370073386248 -4.864471466498294e-05
0.390953213 -0.1003156006 -0.0007464600256448076 -5.0294435778391186e-05
0.3962746859 -0.1003156006 -0.0007552749337568708 -5.194257033701206e-05
0.4015961289 -0.1003156006 -0.0007640839331764063 -5.3589444547043746e-05
0.4069176018 -0.1003156006 -0.0007729004050224023 -5.523621096929473e-05
0.4122390449 -0.1003156006 -0.0007818373549195522 -5.709463249534558e-05
0.4175605178 -0.1003156006 -0.0007910499998924056 -5.917549118047506e-05
0.4228819609 -0.1003156006 -0.0008002775103194863 -6.122826469394809e-05
0.4282034338 -0.1003156006 -0.0008095100944255289 -6.328530451015673e-05
0.4335248768 -0.1003156006 -0.000818671003256282 -6.540858644697951e-05
0.4388463497 -0.1003156006 -0.0008279553159503144 -6.76642055358622e-05
0.4441677928 -0.1003156006 -0.0008375884085422377 -7.027766265581635e-05
0.4494892657 -0.1003156006 -0.0008472154788197961 -7.290701912594422e-05
0.4548107088 -0.1003156006 -0.0008567856769268238 -7.558476099012066e-05
0.4601321816 -0.1003156006 -0.0008663822338335615 -7.822896832459878e-05
0.4654536247 -0.1003156006 -0.0008761559043691919 -8.109639448986064e-05
0.4707750976 -0.1003156006 -0.0008861908647128933 -8.433499000810442e-05
0.4760965407 -0.1003156006 -0.0008961558418238431 -8.761988751688261e-05
0.4814180136 -0.1003156006 -0.0009061195185015509 -9.09047905454386e-05
0.4867394567 -0.1003156006 -0.0009160932560266696 -9.418761775825568e-05
0.4920609295 -0.1003156006 -0.0009264264444650988 -9.796232830805848e-05
0.4973823726 -0.1003156006 -0.0009368016799200964 -0.00010189705014652641
0.5027038455 -0.1003156006 -0.0009471780559131418 -0.00010582215735673308
0.5080252886 -0.1003156006 -0.0009575540898432173 -0.00010974875255956159
0.5133467317 -0.1003156006 -0.0009680113218750485 -0.00011407442989954036
0.5186682343 -0.1003156006 -0.0009788150825646485 -0.00011872330342264802
0.5239896774 -0.1003156006 -0.0009896069422384538 -0.00012336848702150692
0.5293111205 -0.1003156006 -0.0010003737194609328 -0.0001280365612734649
0.5346325636 -0.1003156006 -0.0010111693993932493 -0.00013310486475117412
0.5399540663 -0.1003156006 -0.001022308005370292 -0.00013856314073661853
0.5452755094 -0.1003156006 -0.0010334867347153707 -0.0001439966684199953
0.5505969524 -0.1003156006 -0.0010445567748997532 -0.00014947583475828733
0.5559183955 -0.1003156006 -0.0010557852324712329 -0.00015559788337827176
0.5612398982 -0.1003156006 -0.0010673115751860256 -0.00016187170783901408
0.5665613413 -0.1003156006 -0.0010788077592442109 -0.00016815479465899687
0.5718827844 -0.1003156006 -0.0010902145717982237 -0.00017481847726738892
0.5772042274 -0.1003156006 -0.0011020146587454433 -0.00018196542019714249
0.5825257301 -0.1003156006 -0.0011138110120874026 -0.00018910046240840948
0.5878471732 -0.1003156006 -0.0011256279575603731 -0.00019665053086473928
0.5931686163 -0.1003156006 -0.0011376742264781155 -0.00020463883642263614
0.5984900594 -0.1003156006 -0.0011497720682128914 -0.00021258566263956033
0.6038115621 -0.1003156006 -0.0011621008740715561 -0.0002212569607793007
0.6091330051 -0.1003156006 -0.0011743894159325547 -0.0002300851278965059
0.6144544482 -0.1003156006 -0.0011869040675549644 -0.00023934585328758904
0.6197758913 -0.1003156006 -0.0011994428891322448 -0.00024911486975407165
0.625097394 -0.1003156006 -0.0012119719831762954 -0.0002591651046876213
0.6304188371 -0.1003156006 -0.0012246815951764743 -0.0002698908892975464
0.6357402802 -0.1003156006 -0.001237206032153014 -0.00028095518957543645
0.6410617828 -0.1003156006 -0.0012498883890776794 -0.00029241456456778094
0.6463832259 -0.1003156006 -0.0012625512896812564 -0.00030442013888962437
0.651704669 -0.1003156006 -0.001275202167860945 -0.0003167247337811587
0.6570261121 -0.1003156006 -0.0012876090583777819 -0.0003297703898329593
0.6623476148 -0.1003156006 -0.0012999741168434923 -0.0003432175051425645
0.6676690578 -0.1003156006 -0.001312357133015682 -0.0003572045206337611
0.6729905009 -0.1003156006 -0.0013244690125816644 -0.00037193975092463324
0.678311944 -0.1003156006 -0.0013363836157931927 -0.00038714118827772585
0.6836334467 -0.1003156006 -0.001348214819539529 -0.000402887562982651
0.6889548898 -0.1003156006 -0.0013597923283284491 -0.0004192073170557006
0.6942763329 -0.1003156006 -0.0013711175635855177 -0.0004362298555706651
0.6995977759 -0.1003156006 -0.0013822185511427716 -0.0004537767444960477
0.7049192786 -0.1003156006 -0.0013928762428072573 -0.00047198734970640467
0.7102407217 -0.1003156006 -0.0014031440434809936 -0.0004906250529499035
0.7155621648 -0.1003156006 -0.001412982191538001 -0.00051005407242162
0.7208836079 -0.1003156006 -0.0014223111519990478 -0.0005299777670698853
0.7262051105 -0.1003156006 -0.0014310907501144112 -0.0005502932304158874
0.7315265536 -0.1003156006 -0.0014394366069709118 -0.0005712418380591529
0.7368479967 -0.1003156006 -0.0014468436472389902 -0.0005927286398124888
0.7421694398 -0.1003156006 -0.0014537853053595156 -0.0006148073026529455
0.7474909425 -0.1003156006 -0.0014597326974727974 -0.0006369065213968771
0.7528123856 -0.1003156006 -0.0014653316635014034 -0.0006595369966888442
0.7581338286 -0.1003156006 -0.0014699634074457702 -0.0006823725936627265
-0.3008363545 -0.09699654579 -0.00022898059449994783 -0.0014003957049888204
-0.2955148816 -0.09699654579 -0.0001811013112479633 -0.001410328191939014
-0.2901934385 -0.09699654579 -0.00013232207494248834 -0.0014145400541637377
-0.2848719656 -0.09699654579 -8.593409437127794e-05 -0.0014125481097315375
-0.2795505226 -0.09699654579 -3.564562492295838e-05 -0.0014085035153136444
-0.2742290497 -0.09699654579 1.712544150674283e-05 -0.00139954286126689
-0.2689076066 -0.09699654579 7.399765255943981e-05 -0.0013837269393512873
-0.2635861337 -0.09699654579 0.00012814913883355824 -0.001363975804962342
-0.2582646906 -0.09699654579 0.00017580790293434908 -0.001339401385491989
-0.2529432178 -0.09699654579 0.000224081935862685 -0.0013073213287376907
-0.2476217598 -0.09699654579 0.0002738163335511759 -0.0012692084496653258
-0.2423003018 -0.09699654579 0.0003185193226226609 -0.0012278745996359825
-0.2369788438 -0.09699654579 0.0003546520932882018 -0.001184391766099005
-0.2316573858 -0.09699654579 0.0003887366909832641 -0.0011355405137985003
-0.2263359278 -0.09699654579 0.00042331513678414386 -0.001082264468735743
-0.2210144699 -0.09699654579 0.0004437186171292963 -0.0010327269060109064
-0.2156930119 -0.09699654579 0.00046030870943476716 -0.0009797648119898833
-0.2103715539 -0.09699654579 0.0004769935816738797 -0.0009236638028178079
-0.2050500959 -0.09699654579 0.00048338237711468375 -0.0008728993536099298
-0.1997286379 -0.09699654579 0.0004856637525290059 -0.0008222470929505201
-0.19440718 -0.09699654579 0.000487371733120868 -0.00077071168994776
-0.189085722 -0.09699654579 0.0004819842249290177 -0.0007244739716085636
-0.183764264 -0.09699654579 0.0004755557258505293 -0.0006806631514120275
-0.178442806 -0.09699654579 0.00046703259930006165 -0.0006359463442489402
-0.173121348 -0.09699654579 0.0004555150590673766 -0.0005974263595124712
-0.16779989 -0.09699654579 0.0004413525425907398 -0.000560593254740251
-0.1624784321 -0.09699654579 0.00042722627148495236 -0.0005231597276630618
-0.1571569741 -0.09699654579 0.0004105381837847351 -0.0004899185750454584
-0.1518355161 -0.09699654579 0.00039336752062987086 -0.00045981614582987567
-0.1465140581 -0.09699654579 0.0003756024885105825 -0.00042969993335197125
-0.1411926001 -0.09699654579 0.00035754676618459194 -0.0004015606593835541
-0.1358711421 -0.09699654579 0.0003391130830433366 -0.0003781905551562154
-0.1305496842 -0.09699654579 0.00032006604390180584 -0.0003548805137715252
-0.1252282262 -0.09699654579 0.000301107526756305 -0.0003315117360036834
-0.1199067682 -0.09699654579 0.00028219845458140187 -0.00031240665497230034
-0.1145853102 -0.09699654579 0.00026372353210399346 -0.0002944228054142152
-0.1092638522 -0.09699654579 0.0002450697287452498 -0.00027647195102604966
-0.1039423943 -0.09699654579 0.00022594070615642792 -0.00025889963129606896
-0.09862093627 -0.09699654579 0.00020826355946856228 -0.0002453020485924666
-0.09329947084 -0.09699654579 0.00019039205530601314 -0.0002317724662668959
-0.08797801286 -0.09699654579 0.0001722970047574737 -0.00021832737646870385
-0.08265655488 -0.09699654579 0.0001544982411159417 -0.00020505873727467503
-0.0773350969 -0.09699654579 0.000138075639706517 -0.00019482011128304637
-0.07201363891 -0.09699654579 0.00012142567756506502 -0.0001847081372116194
-0.06669218093 -0.09699654579 0.00010478131662032578 -0.0001746008804359104
-0.06137072667 -0.09699654579 8.809295118214184e-05 -0.00016447038196536697
-0.05604926869 -0.09699654579 7.259680978164753e-05 -0.00015647797503194887
-0.05072781071 -0.09699654579 5.7443297240625775e-05 -0.00014883063868505615
-0.045406349 -0.09699654579 4.228900277517747e-05 -0.0001411832886831401
-0.04008489102 -0.09699654579 2.702278190861568e-05 -0.00013361492421597973
-0.03476343304 -0.09699654579 1.2194118137554583e-05 -0.0001267443967767835
-0.02944197692 -0.09699654579 -1.6550539112363555e-06 -0.00012106916272408006
-0.02412051894 -0.09699654579 -1.5467457021854202e-05 -0.00011535871668382612
-0.01879905909 -0.09699654579 -2.931374110087292e-05 -0.0001096813739119573
-0.01347760204 -0.09699654579 -4.32074569258643e-05 -0.00010404543802705934
-0.00815614406 -0.09699654579 -5.629961422992238e-05 -9.923659930237498e-05
-0.00283468538 -0.09699654579 -6.888250438574198e-05 -9.49896338992338e-05
0.002486772602 -0.09699654579 -8.150462510142442e-05 -9.078322174865754e-05
0.007808230817 -0.09699654579 -9.412911579574617e-05 -8.657795163394758e-05
0.0131296888 -0.09699654579 -0.00010672993373150515 -8.234967117393672e-05
0.01845114678 -0.09699654579 -0.00011864202661895809 -7.87610373308677e-05
0.02377260476 -0.09699654579 -0.00013014396400285843 -7.558279805178165e-05
0.02909406275 -0.09699654579 -0.00014169118672389535 -7.245470790222991e-05
0.03441552073 -0.09699654579 -0.00015324174320775663 -6.932897662119877e-05
0.03973697871 -0.09699654579 -0.0001647464301022652 -6.615461283737331e-05
0.04505843669 -0.09699654579 -0.00017587842932676714 -6.331787415918252e-05
0.05037989467 -0.09699654579 -0.00018648688431616956 -6.0997215127507495e-05
0.05570135266 -0.09699654579 -0.00019711210816451878 -5.870057968477814e-05
0.06102281436 -0.09699654579 -0.00020776151676890183 -5.642938333410076e-05
0.06634426862 -0.09699654579 -0.00021836409915704547 -5.410300801610353e-05
0.0716657266 -0.09699654579 -0.0002289662786810656 -5.177663140884697e-05
0.07698718458 -0.09699654579 -0.00023879202813323255 -5.005332648276341e-05
0.08230864257 -0.09699654579 -0.0002486188635053934 -4.8344944731352206e-05
0.08763010055 -0.09699654579 -0.0002584408098129158 -4.6646540129535614e-05
0.09295155853 -0.09699654579 -0.0002682626149014367 -4.4933252518613914e-05
0.09827301651 -0.09699654579 -0.00027807873679303453 -4.321306340167052e-05
0.1035944745 -0.09699654579 -0.00028765621420907096 -4.164632411852179e-05
0.1089159325 -0.09699654579 -0.0002968833128444663 -4.033343073486183e-05
0.1142373979 -0.09699654579 -0.0003061003053447696 -3.9017564578352327e-05
0.1195588559 -0.09699654579 -0.0003152994786296679 -3.767355250221971e-05
0.1248803139 -0.09699654579 -0.0003244992804227658 -3.6329532293119295e-05
0.1302017719 -0.09699654579 -0.0003337165381214576 -3.501863113264914e-05
0.1355232298 -0.09699654579 -0.0003427124130908398 -3.393475924685051e-05
0.1408446878 -0.09699654579 -0.00035156743161164514 -3.298164317783136e-05
0.1461661458 -0.09699654579 -0.00036041813564306096 -3.201851210596647e-05
0.1514876038 -0.09699654579 -0.0003692723004027719 -3.105192127542889e-05
0.1568090618 -0.09699654579 -0.000378128294976993 -3.0085458995343382e-05
0.1621305197 -0.09699654579 -0.0003869709406603024 -2.9125126703241882e-05
0.1674519777 -0.09699654579 -0.00039559502788039927 -2.8458242868598145e-05
0.1727734357 -0.09699654579 -0.0004041817876306736 -2.7914791628178175e-05
0.1780948937 -0.09699654579 -0.0004127882143637217 -2.736867185182099e-05
0.1834163517 -0.09699654579 -0.00042138885546129373 -2.6833505131789785e-05
0.1887378097 -0.09699654579 -0.0004299545094462714 -2.6262765881867346e-05
0.1940592676 -0.09699654579 -0.00043852096292730194 -2.5691986357978006e-05
0.1993807256 -0.09699654579 -0.00044688203014524503 -2.5399594714697812e-05
0.2047021836 -0.09699654579 -0.0004552145493756363 -2.5176444761596825e-05
0.2100236416 -0.09699654579 -0.0004635271015701815 -2.495801974634873e-05
0.2153450996 -0.09699654579 -0.0004718349528152665 -2.4721262696598957e-05
0.2206665576 -0.09699654579 -0.0004801424671508544 -2.4484505323576804e-05
0.2259880155 -0.09699654579 -0.0004884492047251048 -2.4263477331121672e-05
0.2313094735 -0.09699654579 -0.0004966658097931011 -2.424769516975308e-05
0.2366309315 -0.09699654579 -0.0005048717784787133 -2.4254988317775138e-05
0.2419523895 -0.09699654579 -0.0005130780152549526 -2.4262269086759774e-05
0.2472738475 -0.09699654579 -0.0005212841068975803 -2.4269496847285466e-05
0.2525953054 -0.09699654579 -0.0005294778820623471 -2.429248064231086e-05
0.2579167783 -0.09699654579 -0.0005376565480169332 -2.4300049566564487e-05
0.2632382214 -0.09699654579 -0.0005458543583608531 -2.45472594764354e-05
0.2685596943 -0.09699654579 -0.0005540721923393372 -2.483998756917866e-05
0.2738811374 -0.09699654579 -0.0005622815986499197 -2.5150292606115778e-05
0.2792026103 -0.09699654579 -0.0005704710138813074 -2.5450234822680034e-05
0.2845240533 -0.09699654579 -0.0005786659346021005 -2.5767607571880416e-05
0.2898455262 -0.09699654579 -0.000586866981017648 -2.606417219584106e-05
0.2951669693 -0.09699654579 -0.000595148560638673 -2.6628604364400403e-05
0.3004884422 -0.09699654579 -0.0006034258267800485 -2.7216371053678877e-05
0.3058098853 -0.09699654579 -0.000611702632575318 -2.7800685452822328e-05
0.3111313581 -0.09699654579 -0.0006199806071287686 -2.838501206348314e-05
0.3164528012 -0.09699654579 -0.0006282484217280618 -2.8988846221304913e-05
0.3217742741 -0.09699654579 -0.0006364915299246134 -2.9611102946343502e-05
0.3270957172 -0.09699654579 -0.0006449219415665091 -3.052988672668408e-05
0.3324171901 -0.09699654579 -0.0006533520173269842 -3.144879125553233e-05
0.3377386332 -0.09699654579 -0.0006617700729376846 -3.239086189358852e-05
0.343060106 -0.09699654579 -0.0006701788899965472 -3.333342656696923e-05
0.3483815491 -0.09699654579 -0.0006785842673285606 -3.4266211703145635e-05
0.353703022 -0.09699654579 -0.0006870551633104546 -3.5308237008456306e-05
0.3590244651 -0.09699654579 -0.0006956625716285626 -3.657555681054791e-05
0.364345938 -0.09699654579 -0.0007042448829521151 -3.785108436363184e-05
0.369667381 -0.09699654579 -0.000712824156528614 -3.912765112300557e-05
0.3749888539 -0.09699654579 -0.0007214002998308876 -4.039869863481374e-05
0.380310297 -0.09699654579 -0.0007299628691267075 -4.169612294182801e-05
0.3856317699 -0.09699654579 -0.0007387476704713868 -4.3232404958436144e-05
0.390953213 -0.09699654579 -0.000747615453006559 -4.4828762601534545e-05
0.3962746859 -0.09699654579 -0.0007564936623509923 -4.6400092161832314e-05
0.4015961289 -0.09699654579 -0.0007653503638399815 -4.801018831744022e-05
0.4069176018 -0.09699654579 -0.0007741843423126728 -4.963436672179325e-05
0.4122390449 -0.09699654579 -0.0007832102121948482 -5.1420380624710284e-05
0.4175605178 -0.09699654579 -0.0007925003873035251 -5.341313099767929e-05
0.4228819609 -0.09699654579 -0.0008017505966689688 -5.546050985259422e-05
0.4282034338 -0.09699654579 -0.0008109794991612625 -5.751943212433506e-05
0.4335248768 -0.09699654579 -0.0008202147206202383 -5.957868835755095e-05
0.4388463497 -0.09699654579 -0.0008296218649042926 -6.175974714408396e-05
0.4441677928 -0.09699654579 -0.0008393137445311109 -6.433822576536438e-05
0.4494892657 -0.09699654579 -0.0008489907903561628 -6.691535518521119e-05
0.4548107088 -0.09699654579 -0.0008586717263857732 -6.948881439993606e-05
0.4601321816 -0.09699654579 -0.0008683456033674857 -7.207867098065068e-05
0.4654536247 -0.09699654579 -0.0008781306116865551 -7.495947572241026e-05
0.4707750976 -0.09699654579 -0.0008882166844060912 -7.816005778282842e-05
0.4760965407 -0.09699654579 -0.0008983357658175914 -8.132448163293943e-05
0.4814180136 -0.09699654579 -0.0009084209411263635 -8.452431954589927e-05
0.4867394567 -0.09699654579 -0.0009184445458280318 -8.776315083980872e-05
0.4920609295 -0.09699654579 -0.000928840676902057 -9.149548181186131e-05
0.4973823726 -0.09699654579 -0.0009393355999200268 -9.53498553960345e-05
0.5027038455 -0.09699654579 -0.0009498005656960179 -9.924651672951248e-05
0.5080252886 -0.09699654579 -0.0009602573960800063 -0.00010312788751489181
0.5133467317 -0.09699654579 -0.0009709344175630463 -0.00010733281239630215
0.5186682343 -0.09699654579 -0.000981858346720281 -0.0001119213038580017
0.5239896774 -0.09699654579 -0.0009926542507997609 -0.00011657672786486846
0.5293111205 -0.09699654579 -0.001003523515585455 -0.0001211993601624174
0.5346325636 -0.09699654579 -0.0010146175153254373 -0.0001261307023774654
0.5399540663 -0.09699654579 -0.0010258746077777433 -0.00013154576075176245
0.5452755094 -0.09699654579 -0.0010370545487223726 -0.0001369855904259744
0.5505969524 -0.09699654579 -0.0010483171497150518 -0.00014239965027118003
0.5559183955 -0.09699654579 -0.0010599049286080832 -0.0001483967887016579
0.5612398982 -0.09699654579 -0.0010714152445028228 -0.0001546596639194884
0.5665613413 -0.09699654579 -0.0010829365216445178 -0.0001609245112132239
0.5718827844 -0.09699654579 -0.0010947674654328717 -0.00016744943021920086
0.5772042274 -0.09699654579 -0.0011066448538984731 -0.00017455246101449429
0.5825257301 -0.09699654579 -0.0011185234644775766 -0.0001816560018153631
0.5878471732 -0.09699654579 -0.0011306406586881904 -0.00018903537225559288
0.5931686163 -0.09699654579 -0.0011428314452781815 -0.00019699977467827577
0.5984900594 -0.09699654579 -0.0011551347066334906 -0.00020496873069269326
0.6038115621 -0.09699654579 -0.0011675347257866654 -0.00021352121466479895
0.6091330051 -0.09699654579 -0.0011801773116426539 -0.00022243234524052248
0.6144544482 -0.09699654579 -0.0011927055707845577 -0.00023155170472857037
0.6197758913 -0.09699654579 -0.0012055108411497687 -0.00024139802796042318
0.625097394 -0.09699654579 -0.0012183134103356033 -0.0002514231665383296
0.6304188371 -0.09699654579 -0.0012312332765988742 -0.0002620355787429463
0.6357402802 -0.09699654579 -0.0012443153808355824 -0.0002729516417325357
0.6410617828 -0.09699654579 -0.0012571760079420225 -0.0002844319543195802
0.6463832259 -0.09699654579 -0.0012701205014237175 -0.0002964021499688329
0.651704669 -0.09699654579 -0.0012830941470581042 -0.0003088696895676376
0.6570261121 -0.09699654579 -0.0012958290156031545 -0.0003220123493818411
0.6623476148 -0.09699654579 -0.0013085284984585518 -0.00033559767921194833
0.6676690578 -0.09699654579 -0.0013212618878539078 -0.00034954266398405
0.6729905009 -0.09699654579 -0.0013337831664473492 -0.0003642624122428632
0.678311944 -0.09699654579 -0.0013462689825654525 -0.0003795534614455402
0.6836334467 -0.09699654579 -0.0013584817497096183 -0.00039528953463265407
0.6889548898 -0.09699654579 -0.0013704256488160154 -0.00041180406933153903
0.6942763329 -0.09699654579 -0.0013820968148400524 -0.0004289577108526924
0.6995977759 -0.09699654579 -0.001393554829550193 -0.00044671596438893555
0.7049192786 -0.09699654579 -0.0014046517399874503 -0.0004650879259824387
0.7102407217 -0.09699654579 -0.001415358523547163 -0.00048409839026344783
0.7155621648 -0.09699654579 -0.0014254915449256288 -0.0005038429763832674
0.7208836079 -0.09699654579 -0.001435184351960561 -0.0005241505267624514
0.7262051105 -0.09699654579 -0.0014443533510164397 -0.0005450775818752976
0.7315265536 -0.09699654579 -0.0014526093709588404 -0.0005664124623730404
0.7368479967 -0.09699654579 -0.0014606525190166758 -0.0005883099757457758
0.7421694398 -0.09699654579 -0.0014677207297588558 -0.0006106019321967312
0.7474909425 -0.09699654579 -0.0014741508637983766 -0.00063333601221143
0.7528123856 -0.09699654579 -0.0014795643925017358 -0.0006563391356769685
0.7581338286 -0.09699654579 -0.0014844314674931003 -0.0006797356350895446
-0.3008363545 -0.09367749095 -0.0002371070461667622 -0.0014266332749255717
-0.2955148816 -0.09367749095 -0.00018770145631011727 -0.001439146732252961
-0.2901934385 -0.09367749095 -0.0001326493578933232 -0.0014452967654462782
-0.2848719656 -0.09367749095 -8.205372819071166e-05 -0.0014462978704095958