VARIABLES = X,Y,phix,phiy
ZONE I=200,J=200,F=POINT 
-0.3008363545 -0.1003156006 0.0003016381981820001 -0.0007505422918257063
-0.2955148816 -0.1003156006 0.00031048916536833817 -0.0007225200391397524
-0.2901934385 -0.1003156006 0.0003146014499927523 -0.0007006850046403689
-0.2848719656 -0.1003156006 0.00031627497653790036 -0.000676737677992985
-0.2795505226 -0.1003156006 0.00031197312796633014 -0.0006493307449605312
-0.2742290497 -0.1003156006 0.0002974900619118504 -0.0006203069658403122
-0.2689076066 -0.1003156006 0.0002837913162610307 -0.0005831663288577902
-0.2635861337 -0.1003156006 0.0002845473312673999 -0.0005465096480608469
-0.2582646906 -0.1003156006 0.00028162329837985213 -0.0005110162586803751
-0.2529432178 -0.1003156006 0.00027584916137244557 -0.0004783276434386837
-0.2476217598 -0.1003156006 0.00026395694133068265 -0.000438277233303436
-0.2423003018 -0.1003156006 0.00024193206325396412 -0.0004022098971133329
-0.2369788438 -0.1003156006 0.0002138470377347536 -0.00037892112998823437
-0.2316573858 -0.1003156006 0.00017617073011432424 -0.00035842447051010737
-0.2263359278 -0.1003156006 0.00014220330507509475 -0.00034699418148945285
-0.2210144699 -0.1003156006 0.00011290828041853095 -0.0003594790217587057
-0.2156930119 -0.1003156006 8.2686218706797e-05 -0.0003771318568206021
-0.2103715539 -0.1003156006 6.376165844376619e-05 -0.0003978600763782966
-0.2050500959 -0.1003156006 6.881358396191975e-05 -0.0004032815375328556
-0.1997286379 -0.1003156006 7.23168859088673e-05 -0.0004145118408861867
-0.19440718 -0.1003156006 9.133461712921373e-05 -0.00042345778382407793
-0.189085722 -0.1003156006 9.699983078896945e-05 -0.0004113912633082669
-0.183764264 -0.1003156006 0.00010845881019513118 -0.00039675300261377174
-0.178442806 -0.1003156006 0.00011674619673546079 -0.0003839696394722214
-0.173121348 -0.1003156006 0.0001125606158211014 -0.00036411448569469054
-0.16779989 -0.1003156006 0.00010130649279752316 -0.00034610534016483167
-0.1624784321 -0.1003156006 9.415669549928085e-05 -0.0003245545845254045
-0.1571569741 -0.1003156006 8.024447411427018e-05 -0.0003018415409820674
-0.1518355161 -0.1003156006 6.187918530352979e-05 -0.00027627740788313077
-0.1465140581 -0.1003156006 4.394371521988915e-05 -0.00024907003689852303
-0.1411926001 -0.1003156006 2.063437326379036e-05 -0.00022358368336891524
-0.1358711421 -0.1003156006 -8.641319415663369e-06 -0.00020548406870583952
-0.1305496842 -0.1003156006 -3.809319275791537e-05 -0.00018737297888111323
-0.1252282262 -0.1003156006 -6.794536941627875e-05 -0.00017072765752259905
-0.1199067682 -0.1003156006 -9.633440860708301e-05 -0.00016056739932648501
-0.1145853102 -0.1003156006 -0.0001239602297586512 -0.00015300868955645528
-0.1092638522 -0.1003156006 -0.00015195037406280182 -0.00014594255662521535
-0.1039423943 -0.1003156006 -0.0001797924346104412 -0.00013834318388095365
-0.09862093627 -0.1003156006 -0.0002032736752189694 -0.000137843725842367
-0.09329947084 -0.1003156006 -0.00022669376000882617 -0.00013750990503050409
-0.08797801286 -0.1003156006 -0.00025011440108005877 -0.0001371708237256276
-0.08265655488 -0.1003156006 -0.0002734714465334339 -0.00013681373523241185
-0.0773350969 -0.1003156006 -0.00029252670296717637 -0.00013861797186251132
-0.07201363891 -0.1003156006 -0.0003113159186580492 -0.0001402316716912956
-0.06669218093 -0.1003156006 -0.0003302581355019554 -0.00014184835024102675
-0.06137072667 -0.1003156006 -0.0003490574891077813 -0.00014367755350060458
-0.05604926869 -0.1003156006 -0.0003685948238200199 -0.0001456451290539678
-0.05072781071 -0.1003156006 -0.00038829582639404546 -0.0001480559315463384
-0.045406349 -0.1003156006 -0.0004075730285383954 -0.00015043600744702392
-0.04008489102 -0.1003156006 -0.00042723832354789207 -0.0001526616073452213
-0.03476343304 -0.1003156006 -0.0004471007951263776 -0.00015550777672586178
-0.02944197692 -0.1003156006 -0.00046591757569515316 -0.0001602977580857436
-0.02412051894 -0.1003156006 -0.0004851223512785755 -0.0001651504829610167
-0.01879905909 -0.1003156006 -0.0005044254519794319 -0.00017011558353422225
-0.01347760204 -0.1003156006 -0.0005233212829355985 -0.00017493596999028517
-0.00815614406 -0.1003156006 -0.0005407540876641928 -0.00017982944852104596
-0.00283468538 -0.1003156006 -0.0005558500423109687 -0.00018492991158983995
0.002486772602 -0.1003156006 -0.0005710486361956884 -0.00019034710866919482
0.007808230817 -0.1003156006 -0.0005863412190343899 -0.000195783581653616
0.0131296888 -0.1003156006 -0.0006014565887649673 -0.000200942652194957
0.01845114678 -0.1003156006 -0.0006154629049525924 -0.0002050656417027881
0.02377260476 -0.1003156006 -0.0006276684769620877 -0.0002083615725819891
0.02909406275 -0.1003156006 -0.0006402418181199966 -0.0002116034219137699
0.03441552073 -0.1003156006 -0.000652870149785828 -0.00021483673190080574
0.03973697871 -0.1003156006 -0.0006651718297342154 -0.00021812571837375873
0.04505843669 -0.1003156006 -0.000680283909367879 -0.00022149563254866895
0.05037989467 -0.1003156006 -0.0006993225411710295 -0.000224905219291617
0.05570135266 -0.1003156006 -0.0007188136509880796 -0.00022786881264064992
0.06102281436 -0.1003156006 -0.0007383362500178915 -0.0002308458959866326
0.06634426862 -0.1003156006 -0.0007576246964624591 -0.0002340763466070561
0.0716657266 -0.1003156006 -0.0007763273303626683 -0.00023755015159426362
0.07698718458 -0.1003156006 -0.0007966548214710987 -0.00025087689810206735
0.08230864257 -0.1003156006 -0.000816866548569193 -0.0002649888927437488
0.08763010055 -0.1003156006 -0.0008376304523666986 -0.0002793340733562411
0.09295155853 -0.1003156006 -0.0008578580937170144 -0.00029338699996908727
0.09827301651 -0.1003156006 -0.0008776958224451769 -0.0003073070512829873
0.1035944745 -0.1003156006 -0.0008925580441309043 -0.0003237028798661846
0.1089159325 -0.1003156006 -0.0008961214747646031 -0.00034489094891747746
0.1142373979 -0.1003156006 -0.0008998136680983627 -0.00036606835291511504
0.1195588559 -0.1003156006 -0.0009037921371369323 -0.0003859383322521761
0.1248803139 -0.1003156006 -0.000907783133166243 -0.00040625486472183287
0.1302017719 -0.1003156006 -0.0009112888643902012 -0.0004269093241763292
0.1355232298 -0.1003156006 -0.0009092400015324162 -0.00044035261032717175
0.1408446878 -0.1003156006 -0.0009033376794306212 -0.00044825946997172766
0.1461661458 -0.1003156006 -0.0008980323754053471 -0.00045620136874922407
0.1514876038 -0.1003156006 -0.0008926643727921529 -0.0004641423079738491
0.1568090618 -0.1003156006 -0.0008874774693594924 -0.0004720850830659642
0.1621305197 -0.1003156006 -0.0008822861404577546 -0.000480018908889082
0.1674519777 -0.1003156006 -0.0008827333445841486 -0.00048125765161935436
0.1727734357 -0.1003156006 -0.000885576111151665 -0.0004797236017935233
0.1780948937 -0.1003156006 -0.0008881050309444443 -0.0004781921220837605
0.1834163517 -0.1003156006 -0.0008909714185912803 -0.0004766701726610041
0.1887378097 -0.1003156006 -0.0008937757295023143 -0.0004753792109440712
0.1940592676 -0.1003156006 -0.0008965330684320742 -0.0004748283806552906
0.1993807256 -0.1003156006 -0.0009048371999991334 -0.00048047012536571145
0.2047021836 -0.1003156006 -0.0009147434978514635 -0.0004881427867715426
0.2100236416 -0.1003156006 -0.0009244473224185579 -0.0004957523084882933
0.2153450996 -0.1003156006 -0.0009336436747264537 -0.0005033144981659489
0.2206665576 -0.1003156006 -0.0009426876144733941 -0.0005110624113098148
0.2259880155 -0.1003156006 -0.0009517406775209505 -0.0005188110394105247
0.2313094735 -0.1003156006 -0.000956129510913076 -0.000535399430065098
0.2366309315 -0.1003156006 -0.0009581802891810462 -0.000553314898268279
0.2419523895 -0.1003156006 -0.0009599114197391322 -0.0005709229514364219
0.2472738475 -0.1003156006 -0.0009615597413680223 -0.0005884861797044706
0.2525953054 -0.1003156006 -0.0009635255132285592 -0.0006060796804885074
0.2579167783 -0.1003156006 -0.0009649008643564792 -0.0006228372774667742
0.2632382214 -0.1003156006 -0.0009534827206295003 -0.000637249134585028
0.2685596943 -0.1003156006 -0.0009390146974387771 -0.0006511718340296612
0.2738811374 -0.1003156006 -0.0009241536482379614 -0.0006655799321049086
0.2792026103 -0.1003156006 -0.0009094974225926091 -0.0006795770326948987
0.2845240533 -0.1003156006 -0.0008953962263799166 -0.0006924892719714786
0.2898455262 -0.1003156006 -0.0008813675897554277 -0.0007053795217008054
0.2951669693 -0.1003156006 -0.0008579295485827037 -0.0007028269141246185
0.3004884422 -0.1003156006 -0.0008331102297540373 -0.0006977176561342648
0.3058098853 -0.1003156006 -0.0008112120445456852 -0.0006927056226775401
0.3111313581 -0.1003156006 -0.0007892637345598065 -0.0006877079106101983
0.3164528012 -0.1003156006 -0.000767181233624934 -0.0006827285247180479
0.3217742741 -0.1003156006 -0.0007456943825347717 -0.000677391970374203
0.3270957172 -0.1003156006 -0.0007387104593549486 -0.0006526989155338582
0.3324171901 -0.1003156006 -0.0007313833185191416 -0.0006280106366876729
0.3377386332 -0.1003156006 -0.0007244844388681619 -0.0006033553370131898
0.343060106 -0.1003156006 -0.000717243481751545 -0.0005786655707834836
0.3483815491 -0.1003156006 -0.0007109686074323317 -0.000556782454377798
0.353703022 -0.1003156006 -0.0007131187194489083 -0.0005366637064961832
0.3590244651 -0.1003156006 -0.0007341446981461562 -0.0005198887937253309
0.364345938 -0.1003156006 -0.0007554171737695666 -0.0005031301382175986
0.369667381 -0.1003156006 -0.0007741713860278346 -0.0004883094079503998
0.3749888539 -0.1003156006 -0.0007937641290865712 -0.00047295022900439854
0.380310297 -0.1003156006 -0.0008131453629469854 -0.0004574764315481149
0.3856317699 -0.1003156006 -0.0008384943549992102 -0.00046070920292818615
0.390953213 -0.1003156006 -0.0008624859769483407 -0.0004689485851977196
0.3962746859 -0.1003156006 -0.0008863784526145346 -0.00047723145208854797
0.4015961289 -0.1003156006 -0.0009103040136742346 -0.00048538385211105027
0.4069176018 -0.1003156006 -0.000934216209180181 -0.0004933061390859295
0.4122390449 -0.1003156006 -0.0009514579049867866 -0.0005054213015417555
0.4175605178 -0.1003156006 -0.0009622906706625125 -0.0005248157800264544
0.4228819609 -0.1003156006 -0.0009733273282125833 -0.0005447598918740397
0.4282034338 -0.1003156006 -0.0009844035312989315 -0.0005645547139910456
0.4335248768 -0.1003156006 -0.000994526519352519 -0.0005831089695697561
0.4388463497 -0.1003156006 -0.0010024771735244193 -0.0006028954034345685
0.4441677928 -0.1003156006 -0.0010042404904362682 -0.0006255289395188895
0.4494892657 -0.1003156006 -0.001006134575578207 -0.0006481201150988566
0.4548107088 -0.1003156006 -0.0010077429015935295 -0.000670069910239171
0.4601321816 -0.1003156006 -0.001009436356812354 -0.0006923371526847968
0.4654536247 -0.1003156006 -0.0010086603893800193 -0.0007173921506829865
0.4707750976 -0.1003156006 -0.001004304829439919 -0.0007461925692422865
0.4760965407 -0.1003156006 -0.0009989896977071642 -0.0007737710038292413
0.4814180136 -0.1003156006 -0.000993526613922307 -0.0008013818249711641
0.4867394567 -0.1003156006 -0.0009882446956318283 -0.0008291737878159632
0.4920609295 -0.1003156006 -0.000972378208585515 -0.0008617073934644515
0.4973823726 -0.1003156006 -0.0009534590502417669 -0.0008945870018361655
0.5027038455 -0.1003156006 -0.0009348211596873506 -0.0009275028432326329
0.5080252886 -0.1003156006 -0.0009164009405340745 -0.0009603955315233047
0.5133467317 -0.1003156006 -0.000889909604377132 -0.0009891966165358134
0.5186682343 -0.1003156006 -0.0008521618002106877 -0.0010184103271518293
0.5239896774 -0.1003156006 -0.0008142463493382659 -0.001047771002594936
0.5293111205 -0.1003156006 -0.0007771077096772095 -0.0010762740577057728
0.5346325636 -0.1003156006 -0.0007354698980888305 -0.0010974653708316553
0.5399540663 -0.1003156006 -0.0006837142875781818 -0.0011133953016035359
0.5452755094 -0.1003156006 -0.0006310207648466443 -0.0011300076225271359
0.5505969524 -0.1003156006 -0.0005806667679419845 -0.0011452949518942154
0.5559183955 -0.1003156006 -0.0005264370503216023 -0.0011496823662827385
0.5612398982 -0.1003156006 -0.00046758656917887626 -0.0011510667536637122
0.5665613413 -0.1003156006 -0.0004089537375562091 -0.0011523751129197696
0.5718827844 -0.1003156006 -0.0003533556678925298 -0.001148021116062965
0.5772042274 -0.1003156006 -0.0002938703780307991 -0.0011354460049779094
0.5825257301 -0.1003156006 -0.0002337277789193761 -0.0011229531172699534
0.5878471732 -0.1003156006 -0.00017610937119005827 -0.0011052646231022698
0.5931686163 -0.1003156006 -0.00011749248035868763 -0.001080615209129704
0.5984900594 -0.1003156006 -5.84777792862087e-05 -0.0010563356170176545
0.6038115621 -0.1003156006 2.6397211388727235e-07 -0.0010232054735284757
0.6091330051 -0.1003156006 5.715969126384475e-05 -0.000988562372146197
0.6144544482 -0.1003156006 0.00011464239016848601 -0.0009480745845960227
0.6197758913 -0.1003156006 0.000169157796927235 -0.0009032518756484007
0.625097394 -0.1003156006 0.00022247132498161211 -0.0008551779795373254
0.6304188371 -0.1003156006 0.000273061554121192 -0.0008004623661450125
0.6357402802 -0.1003156006 0.00031992687401656534 -0.0007441293503714727
0.6410617828 -0.1003156006 0.0003646863628787434 -0.0006825153911946462
0.6463832259 -0.1003156006 0.0004063154204938 -0.000617462962696218
0.651704669 -0.1003156006 0.00044657270667209823 -0.0005496416120680612
0.6570261121 -0.1003156006 0.0004802563535021749 -0.00047866881353047375
0.6623476148 -0.1003156006 0.0005112362962861629 -0.0004044560327121809
0.6676690578 -0.1003156006 0.0005382526187880245 -0.0003274010497277061
0.6729905009 -0.1003156006 0.0005592939423180635 -0.0002473678215311247
0.678311944 -0.1003156006 0.0005758028665161741 -0.00016661418672975754
0.6836334467 -0.1003156006 0.000588354565142917 -8.361579077538031e-05
0.6889548898 -0.1003156006 0.0005951592378810343 1.008489859174428e-06
0.6942763329 -0.1003156006 0.0005984227413908883 8.551770511823965e-05
0.6995977759 -0.1003156006 0.0005953663248204384 0.00017230882798646593
0.7049192786 -0.1003156006 0.0005875757114114023 0.0002582532704341999
0.7102407217 -0.1003156006 0.000575267862317243 0.0003434288859204484
0.7155621648 -0.1003156006 0.000556463001329184 0.0004274600620922464
0.7208836079 -0.1003156006 0.000533058424140346 0.0005098271503398109
0.7262051105 -0.1003156006 0.0005050543164800986 0.0005902854573703038
0.7315265536 -0.1003156006 0.0004724287748968241 0.0006683080576032822
0.7368479967 -0.1003156006 0.00043468300473377695 0.0007420079278662412
0.7421694398 -0.1003156006 0.0003928063250367781 0.0008126593263260498
0.7474909425 -0.1003156006 0.00034971588724859806 0.0008772114564403298
0.7528123856 -0.1003156006 0.0003032348386893883 0.0009384850420618071
0.7581338286 -0.1003156006 0.00025458143653818086 0.0009940736167483462
-0.3008363545 -0.09699654579 0.00031876638534785855 -0.0007583718256799148
-0.2955148816 -0.09699654579 0.00032747443453580747 -0.0007323648907866553
-0.2901934385 -0.09699654579 0.0003376642504946809 -0.0007030186604364476
-0.2848719656 -0.09699654579 0.0003374433207040577 -0.0006773345914457137
-0.2795505226 -0.09699654579 0.00033666744829401467 -0.0006523714654467104
-0.2742290497 -0.09699654579 0.00032803469456889805 -0.0006204129907540218
-0.2689076066 -0.09699654579 0.00031071126596667357 -0.0005798724869846955
-0.2635861337 -0.09699654579 0.0003006043527241843 -0.0005360800097411782
-0.2582646906 -0.09699654579 0.0002986282148723184 -0.0004985008468113546
-0.2529432178 -0.09699654579 0.0002896351032177435 -0.0004593409608018745
-0.2476217598 -0.09699654579 0.00027132579506661025 -0.0004155258894173953
-0.2423003018 -0.09699654579 0.00024897837246512 -0.00037285523701546954
-0.2369788438 -0.09699654579 0.00021124131122599206 -0.0003458782249908347
-0.2316573858 -0.09699654579 0.00017391262866715671 -0.0003313243855312886
-0.2263359278 -0.09699654579 0.00012139402714457807 -0.0003325409717758694
-0.2210144699 -0.09699654579 8.724377435481595e-05 -0.00034596354641640504
-0.2156930119 -0.09699654579 6.663248603746713e-05 -0.00036545495159713516
-0.2103715539 -0.09699654579 3.810643876914985e-05 -0.0003927364026765891
-0.2050500959 -0.09699654579 3.843564641618615e-05 -0.0004063286822528852
-0.1997286379 -0.09699654579 5.8079139524212446e-05 -0.00041516811604600104
-0.19440718 -0.09699654579 7.95257919634768e-05 -0.00042629950470912756
-0.189085722 -0.09699654579 9.33654596072388e-05 -0.00042028878121332976
-0.183764264 -0.09699654579 9.9959773665334e-05 -0.00040994926015219704
-0.178442806 -0.09699654579 0.00011534565456958673 -0.00039539083429886233
-0.173121348 -0.09699654579 0.00011372154134191864 -0.0003754878159040339
-0.16779989 -0.09699654579 0.00010788495616427659 -0.00035166725198106384
-0.1624784321 -0.09699654579 0.00010062247141685108 -0.0003233009043789344
-0.1571569741 -0.09699654579 8.620341517846718e-05 -0.0002879552690685883
-0.1518355161 -0.09699654579 6.698958226018315e-05 -0.00025747948822832844
-0.1465140581 -0.09699654579 4.639109059338867e-05 -0.0002277344660753196
-0.1411926001 -0.09699654579 2.4085068615549014e-05 -0.00020034611025089788
-0.1358711421 -0.09699654579 -5.9163338153048615e-06 -0.00018398042998225977
-0.1305496842 -0.09699654579 -3.5849060851566145e-05 -0.00016819788852819183
-0.1252282262 -0.09699654579 -6.542003152491131e-05 -0.00015307201339489977
-0.1199067682 -0.09699654579 -9.300707789507066e-05 -0.00014363893167605195
-0.1145853102 -0.09699654579 -0.00011928664477555124 -0.00013659453321387835
-0.1092638522 -0.09699654579 -0.00014589809368186583 -0.00012987112966048384
-0.1039423943 -0.09699654579 -0.00017268412254279908 -0.000122921375499125
-0.09862093627 -0.09699654579 -0.0001951504471260947 -0.00012299650765683936
-0.09329947084 -0.09699654579 -0.00021779522898370554 -0.0001234967332029268
-0.08797801286 -0.09699654579 -0.00024037353878557448 -0.0001243401678456405
-0.08265655488 -0.09699654579 -0.0002630431972058094 -0.00012448429222807522
-0.0773350969 -0.09699654579 -0.00028192809251997077 -0.00012638210115792258
-0.07201363891 -0.09699654579 -0.00030068498961581183 -0.00012827504534958917
-0.06669218093 -0.09699654579 -0.0003191895218038275 -0.00013017023812502963
-0.06137072667 -0.09699654579 -0.00033618908865530746 -0.00013228404488789595
-0.05604926869 -0.09699654579 -0.0003553370335437943 -0.00013421038737848858
-0.05072781071 -0.09699654579 -0.0003739977642796325 -0.00013638906033994674
-0.045406349 -0.09699654579 -0.0003930296418776327 -0.00013856392924049897
-0.04008489102 -0.09699654579 -0.0004120642150201204 -0.00014054555928592405
-0.03476343304 -0.09699654579 -0.00043178357945785527 -0.00014321867695984983
-0.02944197692 -0.09699654579 -0.0004512732139435582 -0.0001484481028510352
-0.02412051894 -0.09699654579 -0.00047048220215799226 -0.00015367639248628208
-0.01879905909 -0.09699654579 -0.0004898205517867979 -0.00015889510169430306
-0.01347760204 -0.09699654579 -0.0005093197850159411 -0.0001642059416956619
-0.00815614406 -0.09699654579 -0.0005269905940968518 -0.00016967672363976587
-0.00283468538 -0.09699654579 -0.0005421349802555074 -0.00017537562157281865
0.002486772602 -0.09699654579 -0.0005576480151644052 -0.0001811759269793523
0.007808230817 -0.09699654579 -0.0005731445492182038 -0.00018703262654683523
0.0131296888 -0.09699654579 -0.0005884325217210902 -0.00019277561836567543
0.01845114678 -0.09699654579 -0.0006025613249232495 -0.00019697264985524615
0.02377260476 -0.09699654579 -0.0006155580392010446 -0.00020001338625864947
0.02909406275 -0.09699654579 -0.0006285228438537824 -0.0002028834068971663
0.03441552073 -0.09699654579 -0.0006417281591315586 -0.00020574683644845562
0.03973697871 -0.09699654579 -0.000654509803590145 -0.0002087633450584992
0.04505843669 -0.09699654579 -0.0006705264673747144 -0.00021158981755145807
0.05037989467 -0.09699654579 -0.0006913408122827506 -0.00021404163175021873
0.05570135266 -0.09699654579 -0.0007124328656106267 -0.0002163377838547813
0.06102281436 -0.09699654579 -0.0007338438073032341 -0.00021837923332249264
0.06634426862 -0.09699654579 -0.0007544898470605965 -0.0002209084663146443
0.0716657266 -0.09699654579 -0.0007750599476525278 -0.00022342566995320952
0.07698718458 -0.09699654579 -0.0007978651656167795 -0.0002378593182945865
0.08230864257 -0.09699654579 -0.0008203380141755555 -0.0002529827325296138
0.08763010055 -0.09699654579 -0.0008425858526789052 -0.00026782399411966635
0.09295155853 -0.09699654579 -0.0008647076653787014 -0.0002827313160476372
0.09827301651 -0.09699654579 -0.0008869879284143128 -0.0002977165665898765
0.1035944745 -0.09699654579 -0.0009028609047673797 -0.0003157738385990595
0.1089159325 -0.09699654579 -0.0009066738539941399 -0.00033926430364831915
0.1142373979 -0.09699654579 -0.0009102221330508825 -0.00036194486343126117
0.1195588559 -0.09699654579 -0.0009136932878061658 -0.000384054207420686
0.1248803139 -0.09699654579 -0.0009172272222934171 -0.0004061622157349105
0.1302017719 -0.09699654579 -0.0009208734698113858 -0.00042873145124894865
0.1355232298 -0.09699654579 -0.0009175859251776119 -0.00044284589095605804
0.1408446878 -0.09699654579 -0.0009110625319092881 -0.0004507417559637919
0.1461661458 -0.09699654579 -0.0009039398644894997 -0.0004586554775508299
0.1514876038 -0.09699654579 -0.0008970388390934156 -0.00046655072772479593
0.1568090618 -0.09699654579 -0.0008902593610284862 -0.0004744535644039759
0.1621305197 -0.09699654579 -0.0008840201019839534 -0.00048234778110482096
0.1674519777 -0.09699654579 -0.0008844588006418664 -0.0004825540837604863
0.1727734357 -0.09699654579 -0.000886744767127306 -0.00047994236532836085
0.1780948937 -0.09699654579 -0.0008892140511437503 -0.00047693724819508664
0.1834163517 -0.09699654579 -0.0008915136983324533 -0.0004740291581184083
0.1887378097 -0.09699654579 -0.000894325930760343 -0.00047199346306423337
0.1940592676 -0.09699654579 -0.0008969645100624855 -0.000469965973144604
0.1993807256 -0.09699654579 -0.0009068698237353053 -0.0004752795981357036
0.2047021836 -0.09699654579 -0.0009183991645405622 -0.0004826283657691664
0.2100236416 -0.09699654579 -0.0009289331803703408 -0.0004900393798126453
0.2153450996 -0.09699654579 -0.0009393674330017862 -0.0004976457282789416
0.2206665576 -0.09699654579 -0.000950051282547261 -0.0005052457465554338
0.2259880155 -0.09699654579 -0.0009605475126979817 -0.0005127626721666477
0.2313094735 -0.09699654579 -0.0009653062636695839 -0.0005301038771899839
0.2366309315 -0.09699654579 -0.0009683579941050517 -0.0005498873396893135
0.2419523895 -0.09699654579 -0.00097122189482003 -0.000569674618828837
0.2472738475 -0.09699654579 -0.0009739661798984321 -0.0005894649661235605
0.2525953054 -0.09699654579 -0.0009766257101091194 -0.000608254087645753
0.2579167783 -0.09699654579 -0.0009786643231373944 -0.0006264671730300108
0.2632382214 -0.09699654579 -0.0009654988266684845 -0.0006431152316986456
0.2685596943 -0.09699654579 -0.000949005305929449 -0.0006592780123376504
0.2738811374 -0.09699654579 -0.0009333076360812483 -0.0006745604654752292
0.2792026103 -0.09699654579 -0.0009184698539266761 -0.0006887421277555747
0.2845240533 -0.09699654579 -0.0009033919737091993 -0.0007031359500833092
0.2898455262 -0.09699654579 -0.0008879787780753262 -0.0007180385447511671
0.2951669693 -0.09699654579 -0.0008612817676815929 -0.0007144650749150997
0.3004884422 -0.09699654579 -0.0008356297345592088 -0.0007090237119675811
0.3058098853 -0.09699654579 -0.000809171896902728 -0.0007038649219518949
0.3111313581 -0.09699654579 -0.0007828758332136133 -0.0006986881552401795
0.3164528012 -0.09699654579 -0.0007577803641225799 -0.0006935310159036822
0.3217742741 -0.09699654579 -0.0007354821676715592 -0.000687283109844607
0.3270957172 -0.09699654579 -0.0007278497153939509 -0.0006594075699665925
0.3324171901 -0.09699654579 -0.0007199548226691809 -0.0006315359760837725
0.3377386332 -0.09699654579 -0.0007127587435707039 -0.0006047099895456316
0.343060106 -0.09699654579 -0.0007059732431976295 -0.0005789038878397276
0.3483815491 -0.09699654579 -0.0006990970887300519 -0.0005530107546109872
0.353703022 -0.09699654579 -0.0007034338096929671 -0.0005291593820811859
0.3590244651 -0.09699654579 -0.0007282050994025936 -0.0005100444274173484
0.364345938 -0.09699654579 -0.0007511233229553953 -0.0004925236594345672
0.369667381 -0.09699654579 -0.0007742057946529264 -0.00047501574319973344
0.3749888539 -0.09699654579 -0.0007966897033148506 -0.00045725862746007174
0.380310297 -0.09699654579 -0.0008174912277154611 -0.00044046547954169126
0.3856317699 -0.09699654579 -0.0008430791143165024 -0.0004445729400016433
0.390953213 -0.09699654579 -0.0008704346948094849 -0.0004538689804311315
0.3962746859 -0.09699654579 -0.0008987339951252029 -0.00046366780001242297
0.4015961289 -0.09699654579 -0.000925024463516126 -0.00047270323716196155
0.4069176018 -0.09699654579 -0.0009504675051530475 -0.0004814528149754785
0.4122390449 -0.09699654579 -0.0009697807000513694 -0.0004958311854237482
0.4175605178 -0.09699654579 -0.0009811782036826342 -0.0005173847004071774
0.4228819609 -0.09699654579 -0.0009924436954966574 -0.0005377603182862565
0.4282034338 -0.09699654579 -0.0010032383692459544 -0.0005577963621135588
0.4335248768 -0.09699654579 -0.0010139876195590987 -0.0005779640166814747
0.4388463497 -0.09699654579 -0.0010228887402660212 -0.000599657463222003
0.4441677928 -0.09699654579 -0.001024978487260406 -0.0006230721680518089
0.4494892657 -0.09699654579 -0.0010271391871597539 -0.0006462955708726846
0.4548107088 -0.09699654579 -0.0010293657076247784 -0.0006694678456256396
0.4601321816 -0.09699654579 -0.0010316701238355793 -0.0006925384723272083
0.4654536247 -0.09699654579 -0.001030995756766927 -0.0007177403974924191
0.4707750976 -0.09699654579 -0.001026958066389436 -0.0007473843489538163
0.4760965407 -0.09699654579 -0.0010236518162212334 -0.0007777069806355813
0.4814180136 -0.09699654579 -0.0010197869850448536 -0.0008073860232523294
0.4867394567 -0.09699654579 -0.001015228587356738 -0.0008360230561115318
0.4920609295 -0.09699654579 -0.0009992410264523133 -0.0008705841970240352
0.4973823726 -0.09699654579 -0.0009802478889784497 -0.0009067423892256192
0.5027038455 -0.09699654579 -0.0009613095304241927 -0.0009414337124290121
0.5080252886 -0.09699654579 -0.000942390338496697 -0.0009764767266645274
0.5133467317 -0.09699654579 -0.0009134749814348717 -0.0010105226161701132
0.5186682343 -0.09699654579 -0.0008737793721439594 -0.001042590482237965
0.5239896774 -0.09699654579 -0.0008356828004694611 -0.001071791456487377
0.5293111205 -0.09699654579 -0.0007964082535324981 -0.0011023908145076087
0.5346325636 -0.09699654579 -0.0007494944054989453 -0.001128478304721443
0.5399540663 -0.09699654579 -0.0006955065213083141 -0.0011455213467373214
0.5452755094 -0.09699654579 -0.0006425640383441581 -0.0011620147625527781
0.5505969524 -0.09699654579 -0.0005881699228118829 -0.0011790530837744331
0.5559183955 -0.09699654579 -0.0005280344335264894 -0.0011853616704266352
0.5612398982 -0.09699654579 -0.0004687147889692978 -0.001186962372030612
0.5665613413 -0.09699654579 -0.0004090626339240356 -0.0011885952460401923
0.5718827844 -0.09699654579 -0.0003459489323610598 -0.0011852177542954999
0.5772042274 -0.09699654579 -0.0002853144551755201 -0.0011729119306892687
0.5825257301 -0.09699654579 -0.00022434541766882063 -0.001160617760780169
0.5878471732 -0.09699654579 -0.0001607409701183482 -0.0011435122850519484
0.5931686163 -0.09699654579 -0.00010002196299834511 -0.0011186857503728198
0.5984900594 -0.09699654579 -3.79399279630271e-05 -0.0010930565661292238
0.6038115621 -0.09699654579 2.2802265410913245e-05 -0.001060424004375172
0.6091330051 -0.09699654579 8.329636526072566e-05 -0.001022791846969891
0.6144544482 -0.09699654579 0.00014170674672196138 -0.0009834757698380242
0.6197758913 -0.09699654579 0.00019898136901218866 -0.0009359837954999716
0.625097394 -0.09699654579 0.0002545354938262078 -0.000887157037913185
0.6304188371 -0.09699654579 0.0003071243210370172 -0.0008315989167357781
0.6357402802 -0.09699654579 0.0003596273774948218 -0.0007727729452842562
0.6410617828 -0.09699654579 0.00040605890393326976 -0.0007108868156829286
0.6463832259 -0.09699654579 0.0004506548046412995 -0.0006436042175280495
0.651704669 -0.09699654579 0.0004922129385140292 -0.0005730340101660789
0.6570261121 -0.09699654579 0.0005277998906192844 -0.0004989969403849097
0.6623476148 -0.09699654579 0.0005596420730633773 -0.0004226304454327829
0.6676690578 -0.09699654579 0.0005885658823804079 -0.00034249963694335837
0.6729905009 -0.09699654579 0.000611765381827303 -0.00026028187383097585
0.678311944 -0.09699654579 0.0006309306962971264 -0.00017528964334105905
0.6836334467 -0.09699654579 0.0006451316194387227 -8.940465015044131e-05
0.6889548898 -0.09699654579 0.0006527830422322677 -2.212331092656354e-06
0.6942763329 -0.09699654579 0.0006564711103856849 8.672169970291473e-05
0.6995977759 -0.09699654579 0.0006539495710328779 0.00017582380637682816
0.7049192786 -0.09699654579 0.0006465816207090085 0.0002649400562264571
0.7102407217 -0.09699654579 0.000632876151705501 0.0003538523958160286
0.7155621648 -0.09699654579 0.0006126964535775309 0.0004409650628291052
0.7208836079 -0.09699654579 0.0005876476256942032 0.0005272425014495477
0.7262051105 -0.09699654579 0.0005568936733638814 0.0006110948563612798
0.7315265536 -0.09699654579 0.0005218542997754502 0.0006905421833628649
0.7368479967 -0.09699654579 0.00048262705585394187 0.0007683765183761393
0.7421694398 -0.09699654579 0.00043967736237369965 0.0008405291403954017
0.7474909425 -0.09699654579 0.00039192795280608883 0.0009076503355499644
0.7528123856 -0.09699654579 0.00034243693863543256 0.0009680950790256701
0.7581338286 -0.09699654579 0.00029042174297972317 0.0010254916305164313
-0.3008363545 -0.09367749095 0.00033793188032890144 -0.0007688388951886769
-0.2955148816 -0.09367749095 0.0003498896610477394 -0.0007413132388014792
-0.2901934385 -0.09367749095 0.0003564757277898203 -0.0007096988341148402
-0.2848719656 -0.09367749095 0.0003672989691940744 -0.0006821514636886515
-0.2795505226 -0.09367749095 0.0003643197097254323 -0.0006547236172035789
-0.2742290497 -0.09367749095 0.00036003443749947796 -0.0006203421906858235