VARIABLES = X,Y,phix,phiy
ZONE I=200,J=200,F=POINT 
-0.3008363545 -0.1003156006 0.0009272255609169678 -0.00015269949498800223
-0.2955148816 -0.1003156006 0.0009348270197964927 -0.00018649695011028504
-0.2901934385 -0.1003156006 0.0009519591994247361 -0.00020638894829448558
-0.2848719656 -0.1003156006 0.0009738288938583999 -0.00023014175451723163
-0.2795505226 -0.1003156006 0.0009995571348493384 -0.0002505228074092341
-0.2742290497 -0.1003156006 0.0010339591328703233 -0.00026110967791442277
-0.2689076066 -0.1003156006 0.0010625575454086312 -0.00027257500431014246
-0.2635861337 -0.1003156006 0.001077539637782569 -0.00028327376101854593
-0.2582646906 -0.1003156006 0.001098904244835937 -0.0002855383736334859
-0.2529432178 -0.1003156006 0.0011170333306128675 -0.00028216490713286286
-0.2476217598 -0.1003156006 0.0011378596417604048 -0.0002787436325674977
-0.2423003018 -0.1003156006 0.0011514903852733963 -0.00026913575679885497
-0.2369788438 -0.1003156006 0.0011701128242987756 -0.00025338547619115694
-0.2316573858 -0.1003156006 0.0011896713826416347 -0.000235149271777598
-0.2263359278 -0.1003156006 0.001197148058838117 -0.00021406527272932986
-0.2210144699 -0.1003156006 0.0012346927716059598 -0.00019824031349540867
-0.2156930119 -0.1003156006 0.0012753064039454577 -0.00017999809189343262
-0.2103715539 -0.1003156006 0.0013107521270856967 -0.00015474363514144662
-0.2050500959 -0.1003156006 0.0012974534480938223 -0.0001389040598735434
-0.1997286379 -0.1003156006 0.0012879287994258227 -0.00011721081164662027
-0.19440718 -0.1003156006 0.0012664591773101396 -9.110886897866574e-05
-0.189085722 -0.1003156006 0.001259926283487603 -6.972268521670786e-05
-0.183764264 -0.1003156006 0.0012502541967704369 -3.714477485088118e-05
-0.178442806 -0.1003156006 0.0012452146085768858 -4.486057082658983e-06
-0.173121348 -0.1003156006 0.0012339975114130728 1.328920401882438e-05
-0.16779989 -0.1003156006 0.0012264661127763666 3.10685221037924e-05
-0.1624784321 -0.1003156006 0.00121364012966941 4.6425125902348385e-05
-0.1571569741 -0.1003156006 0.0012010216727543614 5.813777964091714e-05
-0.1518355161 -0.1003156006 0.0011887756684737627 6.845021011434992e-05
-0.1465140581 -0.1003156006 0.0011755661944821162 7.774410681604381e-05
-0.1411926001 -0.1003156006 0.0011671653343186088 8.551963813468281e-05
-0.1358711421 -0.1003156006 0.0011594071467424002 9.314095110951079e-05
-0.1305496842 -0.1003156006 0.0011515167247976538 0.00010076447452525768
-0.1252282262 -0.1003156006 0.0011430975414120352 0.00010980556632498122
-0.1199067682 -0.1003156006 0.0011358684628332088 0.000115197683402019
-0.1145853102 -0.1003156006 0.0011292124218711301 0.00012074953391453325
-0.1092638522 -0.1003156006 0.001121925562707678 0.00012523619470138967
-0.1039423943 -0.1003156006 0.0011149918990084311 0.0001288517703343355
-0.09862093627 -0.1003156006 0.001109142852083735 0.000138530930149533
-0.09329947084 -0.1003156006 0.0011021990727494303 0.00014880169392400756
-0.08797801286 -0.1003156006 0.001095296362153565 0.000159071423574397
-0.08265655488 -0.1003156006 0.0010884171151341038 0.00016914686756228965
-0.0773350969 -0.1003156006 0.0010704941206564577 0.00017503562358948504
-0.07201363891 -0.1003156006 0.0010524946216178457 0.0001806231925811947
-0.06669218093 -0.1003156006 0.0010346652135845929 0.0001862075327847585
-0.06137072667 -0.1003156006 0.0010147863232775143 0.00019227025768486374
-0.05604926869 -0.1003156006 0.001000780600788731 0.0001890370010138112
-0.05072781071 -0.1003156006 0.000987880784515227 0.00018422544238773746
-0.045406349 -0.1003156006 0.0009753031373536185 0.00017966665117349366
-0.04008489102 -0.1003156006 0.0009621223597922799 0.00017431620811510825
-0.03476343304 -0.1003156006 0.0009505799852026421 0.00017066239139105284
-0.02944197692 -0.1003156006 0.0009411605854283155 0.00017216171208486353
-0.02412051894 -0.1003156006 0.0009316497390848077 0.0001738668081186297
-0.01879905909 -0.1003156006 0.0009221568714065851 0.0001759690607436791
-0.01347760204 -0.1003156006 0.0009127858466747007 0.00017762602164509558
-0.00815614406 -0.1003156006 0.0008954328002016292 0.00017669960634401956
-0.00283468538 -0.1003156006 0.0008711317415170757 0.00017403994099160516
0.002486772602 -0.1003156006 0.000844704867945984 0.00017239256686441484
0.007808230817 -0.1003156006 0.0008181826389784542 0.00017073567460211875
0.0131296888 -0.1003156006 0.0007935537285658082 0.0001682795368591266
0.01845114678 -0.1003156006 0.0007682462561436469 0.00015111683486232431
0.02377260476 -0.1003156006 0.0007410247693948721 0.0001224182407431521
0.02909406275 -0.1003156006 0.0007127486334056326 9.252032474197919e-05
0.03441552073 -0.1003156006 0.000684349348654613 6.262551264558363e-05
0.03973697871 -0.1003156006 0.000657194202466259 3.378327867288646e-05
0.04505843669 -0.1003156006 0.0006474556210518876 3.7686052859964705e-06
0.05037989467 -0.1003156006 0.0006628674396307137 -2.8104225838930524e-05
0.05570135266 -0.1003156006 0.0006790917237953197 -6.190998436283364e-05
0.06102281436 -0.1003156006 0.000695620827258594 -9.580691561657443e-05
0.06634426862 -0.1003156006 0.0007111617881846593 -0.00012825992848312665
0.0716657266 -0.1003156006 0.0007260460769132469 -0.00015973535521538186
0.07698718458 -0.1003156006 0.0007425838945552255 -0.0001528150469545194
0.08230864257 -0.1003156006 0.0007587989505958018 -0.00014268262425911463
0.08763010055 -0.1003156006 0.0007760354114923301 -0.0001315824689917701
0.09295155853 -0.1003156006 0.0007925990514260122 -0.00012153519139307281
0.09827301651 -0.1003156006 0.0008082889563657964 -0.00011209049522563384
0.1035944745 -0.1003156006 0.0008120953931036517 -0.00010267569830677886
0.1089159325 -0.1003156006 0.0007870147179469807 -9.349510910242283e-05
0.1142373979 -0.1003156006 0.0007620942222951655 -8.434413807996854e-05
0.1195588559 -0.1003156006 0.0007393537311791571 -7.722647055221537e-05
0.1248803139 -0.1003156006 0.0007159852295306338 -6.947785280666274e-05
0.1302017719 -0.1003156006 0.0006919871067042735 -6.107429246567129e-05
0.1355232298 -0.1003156006 0.0006674317612117919 -7.442983152518673e-05
0.1408446878 -0.1003156006 0.0006430351584085685 -0.00010362563926415918
0.1461661458 -0.1003156006 0.0006202001552537409 -0.00013121409637846643
0.1514876038 -0.1003156006 0.0005975153854708081 -0.00015880483064044206
0.1568090618 -0.1003156006 0.0005745709709256699 -0.00018640423008546502
0.1621305197 -0.1003156006 0.0005518290493867109 -0.000214103462573864
0.1674519777 -0.1003156006 0.0005502822961828405 -0.0002341292687250284
0.1727734357 -0.1003156006 0.0005588795934491428 -0.0002510171619044291
0.1780948937 -0.1003156006 0.000567143721405597 -0.0002678978552370774
0.1834163517 -0.1003156006 0.0005756985185568376 -0.00028479067658399547
0.1887378097 -0.1003156006 0.0005830748012107126 -0.0003013877325961559
0.1940592676 -0.1003156006 0.0005897845602331456 -0.00031743644454469916
0.1993807256 -0.1003156006 0.0005822757697192769 -0.0003145456408024285
0.2047021836 -0.1003156006 0.0005697798570542783 -0.0003050891282176626
0.2100236416 -0.1003156006 0.0005573345806747687 -0.0002959362100177786
0.2153450996 -0.1003156006 0.0005448458243403287 -0.0002902471197613753
0.2206665576 -0.1003156006 0.0005325853829631081 -0.00028284272649316863
0.2259880155 -0.1003156006 0.0005201580243510957 -0.0002754293455766287
0.2313094735 -0.1003156006 0.0004759264758590246 -0.0002864501797619844
0.2366309315 -0.1003156006 0.00042630560407625986 -0.0003043498800528385
0.2419523895 -0.1003156006 0.00037815884835768637 -0.00032222877019425297
0.2472738475 -0.1003156006 0.0003300545273797809 -0.000339972377141747
0.2525953054 -0.1003156006 0.00027976132029593724 -0.0003576650215921159
0.2579167783 -0.1003156006 0.00023186404722090096 -0.0003760818830895249
0.2632382214 -0.1003156006 0.00020686392206632092 -0.0004344916445544848
0.2685596943 -0.1003156006 0.00018701824048638648 -0.0005043208117705359
0.2738811374 -0.1003156006 0.00016591916254298853 -0.0005765712092255953
0.2792026103 -0.1003156006 0.00014567107003982514 -0.0006467829151914873
0.2845240533 -0.1003156006 0.00012751888908653594 -0.0007122876558792655
0.2898455262 -0.1003156006 0.00010911355865552688 -0.0007778010033718269
0.2951669693 -0.1003156006 0.00014735173620158347 -0.0008254710980795968
0.3004884422 -0.1003156006 0.00019402542696253937 -0.000869651474159173
0.3058098853 -0.1003156006 0.00023655249760663066 -0.0009110664743050046
0.3111313581 -0.1003156006 0.0002785107788161962 -0.0009524435976536926
0.3164528012 -0.1003156006 0.0003208099025558638 -0.0009938504689899188
0.3217742741 -0.1003156006 0.0003630255314234326 -0.0010341443722686324
0.3270957172 -0.1003156006 0.0004061179881400187 -0.0010216262018900356
0.3324171901 -0.1003156006 0.00044925423757591137 -0.0010089693101416454
0.3377386332 -0.1003156006 0.0004924217917642837 -0.000996305569100477
0.343060106 -0.1003156006 0.0005353578318679544 -0.0009836438965680025
0.3483815491 -0.1003156006 0.0005740654749420798 -0.0009730804876132716
0.353703022 -0.1003156006 0.0006040539338680809 -0.0009570871576422794
0.3590244651 -0.1003156006 0.0006144556257012835 -0.0009279639877037404
0.364345938 -0.1003156006 0.0006248267934314968 -0.0008988542938108469
0.369667381 -0.1003156006 0.0006333666295549186 -0.0008722375782272435
0.3749888539 -0.1003156006 0.0006422222065343198 -0.0008450330233862862
0.380310297 -0.1003156006 0.0006517456780957522 -0.0008174654924782664
0.3856317699 -0.1003156006 0.0006417086024770595 -0.0007796463083347277
0.390953213 -0.1003156006 0.0006245717973626344 -0.0007431287649158069
0.3962746859 -0.1003156006 0.0006075752470058945 -0.000706808716849366
0.4015961289 -0.1003156006 0.0005916248488128354 -0.0006703940165534838
0.4069176018 -0.1003156006 0.0005758859123617165 -0.0006342308288795636
0.4122390449 -0.1003156006 0.0005478385128120744 -0.0006062278988901399
0.4175605178 -0.1003156006 0.0005000650046627715 -0.0005844364265039114
0.4228819609 -0.1003156006 0.00045057599482143344 -0.0005611923051021957
0.4282034338 -0.1003156006 0.00040155767119143135 -0.0005384240940271455
0.4335248768 -0.1003156006 0.00035609264939420217 -0.0005184725679681025
0.4388463497 -0.1003156006 0.00030844300864694594 -0.0005071202490572556
0.4441677928 -0.1003156006 0.0002537118232046606 -0.0005201800122891831
0.4494892657 -0.1003156006 0.00020045074500863922 -0.0005328863826542189
0.4548107088 -0.1003156006 0.00015062038219282005 -0.0005445580610598042
0.4601321816 -0.1003156006 9.836153873910922e-05 -0.0005569661723612804
0.4654536247 -0.1003156006 5.386551949341559e-05 -0.0005775953427456654
0.4707750976 -0.1003156006 2.3243459164950732e-05 -0.0006095668891476236
0.4760965407 -0.1003156006 -6.429437064148863e-06 -0.0006391762248684909
0.4814180136 -0.1003156006 -3.607052769468617e-05 -0.0006687936274950916
0.4867394567 -0.1003156006 -6.570669854058942e-05 -0.000698425567949872
0.4920609295 -0.1003156006 -7.711048347331803e-05 -0.000726151673715829
0.4973823726 -0.1003156006 -8.255405063743322e-05 -0.0007529677757249589
0.5027038455 -0.1003156006 -8.738431218827813e-05 -0.0007795829170984567
0.5080252886 -0.1003156006 -9.20397618326311e-05 -0.0008061469823403379
0.5133467317 -0.1003156006 -9.415794993255537e-05 -0.0008238327914940526
0.5186682343 -0.1003156006 -8.923451499770508e-05 -0.0008339955045582378
0.5239896774 -0.1003156006 -8.350072438965085e-05 -0.0008442672793538666
0.5293111205 -0.1003156006 -7.901171251560654e-05 -0.0008544316599797258
0.5346325636 -0.1003156006 -7.723375832551959e-05 -0.0008590507159291494
0.5399540663 -0.1003156006 -7.601162089873661e-05 -0.0008560202945674774
0.5452755094 -0.1003156006 -7.386389699713155e-05 -0.0008525872949243528
0.5505969524 -0.1003156006 -7.36100315756562e-05 -0.0008499621892710023
0.5559183955 -0.1003156006 -7.730844087397525e-05 -0.0008428654829045246
0.5612398982 -0.1003156006 -8.176051831556686e-05 -0.000832794865203956
0.5665613413 -0.1003156006 -8.627390490103588e-05 -0.0008230044546195229
0.5718827844 -0.1003156006 -9.250160747995873e-05 -0.0008122876002918554
0.5772042274 -0.1003156006 -0.00010002288652432063 -0.0007981910511447486
0.5825257301 -0.1003156006 -0.00010693213472073736 -0.0007838764816795066
0.5878471732 -0.1003156006 -0.0001170226457753775 -0.0007683393157287235
0.5931686163 -0.1003156006 -0.000127851813481063 -0.0007489292650624294
0.5984900594 -0.1003156006 -0.00013794496508833637 -0.0007302371321730522
0.6038115621 -0.1003156006 -0.0001514680134433672 -0.0007080678715768614
0.6091330051 -0.1003156006 -0.00016580834395943072 -0.0006855964049546314
0.6144544482 -0.1003156006 -0.00018164025200780772 -0.000660552206488468
0.6197758913 -0.1003156006 -0.00020052941629017222 -0.0006353321104375864
0.625097394 -0.1003156006 -0.00021988779148034637 -0.0006084798270658969
0.6304188371 -0.1003156006 -0.00024061393763995598 -0.0005798772828075744
0.6357402802 -0.1003156006 -0.0002631594611777513 -0.000551763500305406
0.6410617828 -0.1003156006 -0.0002859063433698165 -0.0005216358555013163
0.6463832259 -0.1003156006 -0.0003096958717232316 -0.000491736027085703
0.651704669 -0.1003156006 -0.00033354945652987883 -0.00046117229234775607
0.6570261121 -0.1003156006 -0.00035729467127841916 -0.00043013806915849576
0.6623476148 -0.1003156006 -0.00037961158817122355 -0.000397066882935755
0.6676690578 -0.1003156006 -0.0004012283062169684 -0.0003634106700443058
0.6729905009 -0.1003156006 -0.0004209142594029583 -0.00032634727996635137
0.678311944 -0.1003156006 -0.0004395570820303846 -0.000286944083571862
0.6836334467 -0.1003156006 -0.00045592978411097693 -0.00024491040001868743
0.6889548898 -0.1003156006 -0.00046810171793053475 -0.00019903877265848132
0.6942763329 -0.1003156006 -0.00047761442424739 -0.00014574329418367058
0.6995977759 -0.1003156006 -0.0004848265222894616 -8.582777831661517e-05
0.7049192786 -0.1003156006 -0.0004880165544743161 -2.1879749815189144e-05
0.7102407217 -0.1003156006 -0.0004862623853385316 5.315380409692646e-05
0.7155621648 -0.1003156006 -0.0004820066261151291 0.00013911372798484922
0.7208836079 -0.1003156006 -0.0004763358231994164 0.00023837543780672594
0.7262051105 -0.1003156006 -0.00046715479571827036 0.0003519138293261362
0.7315265536 -0.1003156006 -0.0004569489358228599 0.0004820488483662727
0.7368479967 -0.1003156006 -0.00044442762907580616 0.0006388188508165954
0.7421694398 -0.1003156006 -0.00043182520888947575 0.000816232173503055
0.7474909425 -0.1003156006 -0.000430715533190281 0.0010090031196206373
0.7528123856 -0.1003156006 -0.000433307742432471 0.0012398196405883227
0.7581338286 -0.1003156006 -0.0004432378572454403 0.0015016824452150435
-0.3008363545 -0.09699654579 0.0009143581924710459 -0.00015568488417592446
-0.2955148816 -0.09699654579 0.0009265553129149356 -0.0001873509816523381
-0.2901934385 -0.09699654579 0.0009386628770106085 -0.00022732171843766572
-0.2848719656 -0.09699654579 0.0009614220901615237 -0.00025029963577138134
-0.2795505226 -0.09699654579 0.000985278417651447 -0.0002691779897819309
-0.2742290497 -0.09699654579 0.0010138202677802365 -0.0002846892819842838
-0.2689076066 -0.09699654579 0.0010429652400235126 -0.0002928045069936122
-0.2635861337 -0.09699654579 0.0010616815868495226 -0.0002991354729141036
-0.2582646906 -0.09699654579 0.001082856592841705 -0.0003016986001402872
-0.2529432178 -0.09699654579 0.001104528405713223 -0.00030008830911571653
-0.2476217598 -0.09699654579 0.001125786148989263 -0.000290831665999025
-0.2423003018 -0.09699654579 0.0011393318215261986 -0.00028214473457263467
-0.2369788438 -0.09699654579 0.001165808630257242 -0.00026857328346749923
-0.2316573858 -0.09699654579 0.0011786735878526974 -0.0002454565604169446
-0.2263359278 -0.09699654579 0.0011940718979140828 -0.00022404933977673356
-0.2210144699 -0.09699654579 0.0012269459366930188 -0.00021030582712868546
-0.2156930119 -0.09699654579 0.0012635732365207063 -0.0001881552952179882
-0.2103715539 -0.09699654579 0.0013144304308841275 -0.00016408226819595285
-0.2050500959 -0.09699654579 0.0013148395845079266 -0.00014419937592997424
-0.1997286379 -0.09699654579 0.0012931641749480594 -0.00011794207234501755
-0.19440718 -0.09699654579 0.0012728592576336823 -8.957001737031987e-05
-0.189085722 -0.09699654579 0.0012624424459458695 -5.711935342166894e-05
-0.183764264 -0.09699654579 0.0012623874102889441 -2.2285387238246932e-05
-0.178442806 -0.09699654579 0.0012522038069794187 1.3497682475617467e-05
-0.173121348 -0.09699654579 0.00124177421998859 3.309888507667754e-05
-0.16779989 -0.09699654579 0.0012273811958363188 4.527897726178021e-05
-0.1624784321 -0.09699654579 0.0012196163214576693 5.318900475382273e-05
-0.1571569741 -0.09699654579 0.0012087578590144372 6.096386087862117e-05
-0.1518355161 -0.09699654579 0.0012003651992900074 6.987559793330045e-05
-0.1465140581 -0.09699654579 0.0011933701192618966 8.108364914609507e-05
-0.1411926001 -0.09699654579 0.0011844700268521607 9.038054028255612e-05
-0.1358711421 -0.09699654579 0.0011758650301659447 9.962572127510913e-05
-0.1305496842 -0.09699654579 0.001165563830295335 0.00010923914711566472
-0.1252282262 -0.09699654579 0.0011569321298882948 0.00011877963385771804
-0.1199067682 -0.09699654579 0.001149587334050687 0.0001224709288002233
-0.1145853102 -0.09699654579 0.001142310121230488 0.00012574306380588415
-0.1092638522 -0.09699654579 0.0011355834389304873 0.0001289996225432841
-0.1039423943 -0.09699654579 0.0011293305488521165 0.0001305891937390372
-0.09862093627 -0.09699654579 0.0011224166081034096 0.00014140731674447263
-0.09329947084 -0.09699654579 0.0011149500467915775 0.00015306306596357113
-0.08797801286 -0.09699654579 0.001106754935284363 0.00016544075587580416
-0.08265655488 -0.09699654579 0.0010988372196323567 0.00017639527797300885
-0.0773350969 -0.09699654579 0.0010788731238043396 0.00018269762012686956
-0.07201363891 -0.09699654579 0.001057197910117 0.00018886180980960234
-0.06669218093 -0.09699654579 0.001035297795161356 0.00019516877160285825
-0.06137072667 -0.09699654579 0.00101083860160993 0.00020228230426368827
-0.05604926869 -0.09699654579 0.0009931188514610242 0.00019857922644072793
-0.05072781071 -0.09699654579 0.0009773781066549744 0.0001930242365663444
-0.045406349 -0.09699654579 0.0009615914640201051 0.00018746190105567721
-0.04008489102 -0.09699654579 0.0009458140790895253 0.00018126450926097778
-0.03476343304 -0.09699654579 0.0009321425482564548 0.00017706884885726598
-0.02944197692 -0.09699654579 0.0009213511729827125 0.00018030876178189094
-0.02412051894 -0.09699654579 0.0009107332216018493 0.0001834253829884972
-0.01879905909 -0.09699654579 0.0009000638677076421 0.00018666622429767233
-0.01347760204 -0.09699654579 0.0008892118202787005 0.0001902471501573459
-0.00815614406 -0.09699654579 0.0008688759556888661 0.00019116296610648874
-0.00283468538 -0.09699654579 0.0008399936342858255 0.00019029543992272278
0.002486772602 -0.09699654579 0.0008104001253886224 0.000189717094925924
0.007808230817 -0.09699654579 0.0007806806473437229 0.00018936794803218207
0.0131296888 -0.09699654579 0.0007513077709761834 0.00018865357086397913
0.01845114678 -0.09699654579 0.0007214326457216793 0.00017005789912784714
0.02377260476 -0.09699654579 0.0006907631101696262 0.00013831658532311754
0.02909406275 -0.09699654579 0.0006584450289545407 0.00010528414298236639
0.03441552073 -0.09699654579 0.0006258978301402527 7.206796365949302e-05
0.03973697871 -0.09699654579 0.0005950076614826974 4.018184092969209e-05
0.04505843669 -0.09699654579 0.0005850311583206971 6.266052005298432e-06
0.05037989467 -0.09699654579 0.0006043988345619605 -3.0122409041557614e-05
0.05570135266 -0.09699654579 0.0006240470646564361 -6.710933981418975e-05
0.06102281436 -0.09699654579 0.0006448238638265989 -0.00010514459661356044
0.06634426862 -0.09699654579 0.0006640054031672646 -0.0001411130558038237
0.0716657266 -0.09699654579 0.0006828472360157944 -0.00017708124868637192
0.07698718458 -0.09699654579 0.0007043158587918592 -0.000165893856427491
0.08230864257 -0.09699654579 0.0007255688562810782 -0.00015178000419920106
0.08763010055 -0.09699654579 0.0007462160223744452 -0.0001385713090250639
0.09295155853 -0.09699654579 0.0007664703571673669 -0.00012541959847073907
0.09827301651 -0.09699654579 0.0007869990252602309 -0.0001120104756187818
0.1035944745 -0.09699654579 0.0007921225676598032 -9.885910784671078e-05
0.1089159325 -0.09699654579 0.0007636605830799051 -8.656522656421411e-05
0.1142373979 -0.09699654579 0.0007371824265002223 -7.542178509575934e-05
0.1195588559 -0.09699654579 0.0007115164185655772 -6.493443150890559e-05
0.1248803139 -0.09699654579 0.0006861901730938619 -5.4450598185362974e-05
0.1302017719 -0.09699654579 0.000659739176730342 -4.3466107658071226e-05
0.1355232298 -0.09699654579 0.0006331904370584924 -5.862863639979831e-05
0.1408446878 -0.09699654579 0.0006084701687468742 -8.983704712319749e-05
0.1461661458 -0.09699654579 0.0005834059593625264 -0.00012103146635664357
0.1514876038 -0.09699654579 0.000557379620514561 -0.00015237125175236054
0.1568090618 -0.09699654579 0.000531060487250463 -0.0001836849236664872
0.1621305197 -0.09699654579 0.0005061125843601439 -0.0002135963525877691
0.1674519777 -0.09699654579 0.0005097003253820339 -0.0002339108501181319
0.1727734357 -0.09699654579 0.0005226549673246852 -0.00025092327117871133
0.1780948937 -0.09699654579 0.0005365942625621428 -0.0002678912562137522
0.1834163517 -0.09699654579 0.0005498229227116778 -0.0002848827432902688
0.1887378097 -0.09699654579 0.0005616032077425644 -0.0003016798384040034
0.1940592676 -0.09699654579 0.000573378678623953 -0.00031847350103766486
0.1993807256 -0.09699654579 0.0005683821640672202 -0.00031077876799466195
0.2047021836 -0.09699654579 0.0005583069004851592 -0.00029601275994759716
0.2100236416 -0.09699654579 0.0005480955851506314 -0.0002852780518166224
0.2153450996 -0.09699654579 0.0005383088698567601 -0.0002745167030385484
0.2206665576 -0.09699654579 0.000528368819748599 -0.00026375100026726137
0.2259880155 -0.09699654579 0.0005181882503993075 -0.00025305035867084546
0.2313094735 -0.09699654579 0.0004718583012219838 -0.0002643064385381926
0.2366309315 -0.09699654579 0.00041420580746402404 -0.0002806848190974841
0.2419523895 -0.09699654579 0.00035702759527276207 -0.0002970855045213497
0.2472738475 -0.09699654579 0.0002992834863527228 -0.0003134625527283166
0.2525953054 -0.09699654579 0.00024593522786237987 -0.00033082552790466744
0.2579167783 -0.09699654579 0.00019492758564431423 -0.00034828697584410697
0.2632382214 -0.09699654579 0.00016898621539107906 -0.0004165712990768542
0.2685596943 -0.09699654579 0.0001481069155254484 -0.0004961335071595868
0.2738811374 -0.09699654579 0.0001287171588181243 -0.0005721752443704253
0.2792026103 -0.09699654579 0.00011086702330320378 -0.0006444918738375805
0.2845240533 -0.09699654579 9.28864510655924e-05 -0.0007172667996701493
0.2898455262 -0.09699654579 7.38983033466215e-05 -0.0007922319128642453
0.2951669693 -0.09699654579 0.00012187335645066045 -0.0008425620582125239
0.3004884422 -0.09699654579 0.00017455308956844856 -0.0008885432770709032
0.3058098853 -0.09699654579 0.00022422158664955986 -0.000934809424050343
0.3111313581 -0.09699654579 0.00027397653773532637 -0.0009810711180488626
0.3164528012 -0.09699654579 0.0003215112601908981 -0.0010258085997491635
0.3217742741 -0.09699654579 0.00036625792403263626 -0.001065623663498977
0.3270957172 -0.09699654579 0.00041513630249604495 -0.0010498912218714792
0.3324171901 -0.09699654579 0.00046383795392382213 -0.001034133804204939
0.3377386332 -0.09699654579 0.0005107920618535848 -0.0010194176655123777
0.343060106 -0.09699654579 0.0005559200488064578 -0.0010054201282359695
0.3483815491 -0.09699654579 0.0006017588682425064 -0.0009912792089419055
0.353703022 -0.09699654579 0.0006370243085540599 -0.0009707737811765367
0.3590244651 -0.09699654579 0.00065011563020969 -0.0009385837384374168
0.364345938 -0.09699654579 0.0006623800203500185 -0.0009079869907919211
0.369667381 -0.09699654579 0.0006746512196104773 -0.0008774987408978829
0.3749888539 -0.09699654579 0.0006860922017506395 -0.0008471210212081912
0.380310297 -0.09699654579 0.000696348553214174 -0.000818180773099478
0.3856317699 -0.09699654579 0.0006855214866900581 -0.0007797436263469663
0.390953213 -0.09699654579 0.0006687416682289173 -0.0007378095367990972
0.3962746859 -0.09699654579 0.0006524785525188736 -0.0006937958299766774
0.4015961289 -0.09699654579 0.0006357284637862019 -0.0006533303996108313
0.4069176018 -0.09699654579 0.0006189090107192935 -0.000614584748383986
0.4122390449 -0.09699654579 0.0005860376634762385 -0.0005811552710240337
0.4175605178 -0.09699654579 0.0005306658213303261 -0.0005547857663088418
0.4228819609 -0.09699654579 0.0004788952076997686 -0.0005316126927017777
0.4282034338 -0.09699654579 0.00042809934400986355 -0.0005090086309534591
0.4335248768 -0.09699654579 0.0003773449187023027 -0.00048625773356050247
0.4388463497 -0.09699654579 0.00032180738296455673 -0.0004741539293090749
0.4441677928 -0.09699654579 0.0002633334178215125 -0.0004884925472405429
0.4494892657 -0.09699654579 0.00020535502149767961 -0.0005025953501767906
0.4548107088 -0.09699654579 0.00014744328678584462 -0.0005165281168064788
0.4601321816 -0.09699654579 9.136175542073457e-05 -0.0005300786602806164
0.4654536247 -0.09699654579 4.715236637879336e-05 -0.0005512309048634283
0.4707750976 -0.09699654579 1.5380582406052664e-05 -0.0005853406290762573
0.4760965407 -0.09699654579 -1.6652070536471265e-05 -0.0006220327531348879
0.4814180136 -0.09699654579 -4.851308746603066e-05 -0.0006562653027952842
0.4867394567 -0.09699654579 -7.914765919205772e-05 -0.000688588758881699
0.4920609295 -0.09699654579 -8.842976623923374e-05 -0.0007189264079265867
0.4973823726 -0.09699654579 -9.187493987508002e-05 -0.000748661729633763
0.5027038455 -0.09699654579 -9.707566333958571e-05 -0.0007760243414722998
0.5080252886 -0.09699654579 -0.00010114144030056929 -0.0008047057529871352
0.5133467317 -0.09699654579 -9.984542540235666e-05 -0.0008251944116241985
0.5186682343 -0.09699654579 -9.283018934288203e-05 -0.0008354731207923697
0.5239896774 -0.09699654579 -8.778531351451565e-05 -0.0008456380927036955
0.5293111205 -0.09699654579 -8.244268986913581e-05 -0.0008558539627565333
0.5346325636 -0.09699654579 -7.68517926132796e-05 -0.0008598226877974334
0.5399540663 -0.09699654579 -7.484044933617929e-05 -0.0008560085580229349
0.5452755094 -0.09699654579 -7.323565898678253e-05 -0.0008525350794176844
0.5505969524 -0.09699654579 -7.165797767268231e-05 -0.0008487435420910832
0.5559183955 -0.09699654579 -7.364936067362812e-05 -0.0008398407196028705
0.5612398982 -0.09699654579 -7.714652916852933e-05 -0.0008296792335960356
0.5665613413 -0.09699654579 -8.136567919176482e-05 -0.0008195486802112335
0.5718827844 -0.09699654579 -8.607252302231232e-05 -0.0008073033096289869
0.5772042274 -0.09699654579 -9.281325131253813e-05 -0.0007929700015627006
0.5825257301 -0.09699654579 -9.981358203372388e-05 -0.0007786225505840166
0.5878471732 -0.09699654579 -0.00010716001369429983 -0.0007619062881419718
0.5931686163 -0.09699654579 -0.00011721286763020277 -0.0007426024730542149
0.5984900594 -0.09699654579 -0.00012701611916772382 -0.0007226280608207438
0.6038115621 -0.09699654579 -0.0001393587872283822 -0.000699950199888853
0.6091330051 -0.09699654579 -0.00015390759281484558 -0.0006755050419434977
0.6144544482 -0.09699654579 -0.00016893498144742767 -0.0006505738417510187
0.6197758913 -0.09699654579 -0.00018788668009588633 -0.0006238105909453315
0.625097394 -0.09699654579 -0.0002075338286638843 -0.0005969467587610165
0.6304188371 -0.09699654579 -0.0002271791811104671 -0.000567046623340576
0.6357402802 -0.09699654579 -0.0002476613373523893 -0.0005373975369882616
0.6410617828 -0.09699654579 -0.00027042437998511164 -0.000508492922492511
0.6463832259 -0.09699654579 -0.00029334245011961794 -0.00047785622968466774
0.651704669 -0.09699654579 -0.00031723128187686713 -0.0004479160090331598
0.6570261121 -0.09699654579 -0.0003399140299223781 -0.00041645493890860616
0.6623476148 -0.09699654579 -0.0003619868427945118 -0.00038436792283623645
0.6676690578 -0.09699654579 -0.00038220982741288295 -0.0003493535569288075
0.6729905009 -0.09699654579 -0.0004009586712008139 -0.00031401499619396894
0.678311944 -0.09699654579 -0.00041720653209393157 -0.0002770327101514801
0.6836334467 -0.09699654579 -0.000430841283574562 -0.00023711151584214436
0.6889548898 -0.09699654579 -0.0004420248828315871 -0.00019341295877519003
0.6942763329 -0.09699654579 -0.00044736965579369466 -0.0001421654714005385
0.6995977759 -0.09699654579 -0.0004484517267077514 -8.666464785276171e-05
0.7049192786 -0.09699654579 -0.0004468708226858998 -2.451715764081533e-05
0.7102407217 -0.09699654579 -0.00044113728987552536 4.831486933684399e-05
0.7155621648 -0.09699654579 -0.00042962720426334243 0.00013316948195949132
0.7208836079 -0.09699654579 -0.00041111146352672674 0.00023122313736497778
0.7262051105 -0.09699654579 -0.0003899577350881472 0.0003448223247943114
0.7315265536 -0.09699654579 -0.0003680359464120092 0.00047213723907877595
0.7368479967 -0.09699654579 -0.00034104140482030693 0.000624038923338037
0.7421694398 -0.09699654579 -0.00031710363271119003 0.000802282567868448
0.7474909425 -0.09699654579 -0.00029170591846049105 0.0010049441120965783
0.7528123856 -0.09699654579 -0.00027561655649787747 0.0012401692228638174
0.7581338286 -0.09699654579 -0.0002708014860742508 0.0015077055893124207
-0.3008363545 -0.09367749095 0.0009000530791242664 -0.00015371478180865842
-0.2955148816 -0.09367749095 0.0009118052508204233 -0.00019041612035329845
-0.2901934385 -0.09367749095 0.0009326927181559421 -0.00023908182271000427
-0.2848719656 -0.09367749095 0.0009427051209065036 -0.00027129206299010913
-0.2795505226 -0.09367749095 0.0009684622557850482 -0.00029291034508038713
-0.2742290497 -0.09367749095 0.0009911390767171665 -0.00030413765647156255
-0.2689076066 -0.09367749095 0.0010170149866905206 -0.0003154642516346556
-0.2635861337 -0.09367749095 0.0010505512569538222 -0.00031603789992791
-0.2582646906 -0.09367749095 0.001068820585709071 -0.00031931596652590524