VARIABLES = X,Y,phix,phiy
ZONE I=200,J=200,F=POINT 
-0.3008363545 -0.1003156006 -9.973626235507548e-05 -0.0006036982442924085
-0.2955148816 -0.1003156006 -9.413950337397304e-05 -0.0005799143523648056
-0.2901934385 -0.1003156006 -0.0001221199010958775 -0.0005644547326861628
-0.2848719656 -0.1003156006 -0.00015465133011529549 -0.0005488862394209525
-0.2795505226 -0.1003156006 -0.00019327129178769187 -0.0005409931963609968
-0.2742290497 -0.1003156006 -0.00024059787501671837 -0.0005378799930665154
-0.2689076066 -0.1003156006 -0.000281219538954861 -0.0005369792024518153
-0.2635861337 -0.1003156006 -0.00030748588032731455 -0.0005049942723606596
-0.2582646906 -0.1003156006 -0.0003442856732405679 -0.0004586545268200679
-0.2529432178 -0.1003156006 -0.00038454913399099336 -0.00041135579023784995
-0.2476217598 -0.1003156006 -0.0004270943136146175 -0.0003610665182319483
-0.2423003018 -0.1003156006 -0.00042612308941704163 -0.0003383761773418967
-0.2369788438 -0.1003156006 -0.0004047405584322063 -0.00032701665809993746
-0.2316573858 -0.1003156006 -0.0003801994767919995 -0.0003148142742824575
-0.2263359278 -0.1003156006 -0.0003601508292941372 -0.0003096139952966582
-0.2210144699 -0.1003156006 -0.0004183796299847666 -0.00030077774675478226
-0.2156930119 -0.1003156006 -0.00047900809268069407 -0.0002951765211799309
-0.2103715539 -0.1003156006 -0.0005407238068730988 -0.00029334118389006314
-0.2050500959 -0.1003156006 -0.0005369353477356136 -0.0002948215390564102
-0.1997286379 -0.1003156006 -0.0005372558991327042 -0.0002948707051860232
-0.19440718 -0.1003156006 -0.0005261754399961195 -0.00029231195265665166
-0.189085722 -0.1003156006 -0.0005381259575795716 -0.00028923755159403414
-0.183764264 -0.1003156006 -0.0005431642241167899 -0.0002911573179868868
-0.178442806 -0.1003156006 -0.0005503777530480368 -0.0002944489684002385
-0.173121348 -0.1003156006 -0.000558830186050121 -0.00029094133165575805
-0.16779989 -0.1003156006 -0.00057108130827134 -0.00028467318409990523
-0.1624784321 -0.1003156006 -0.0005835637056595737 -0.00027464991033170674
-0.1571569741 -0.1003156006 -0.0005992300130436206 -0.00026405655510606114
-0.1518355161 -0.1003156006 -0.0006183035644366633 -0.0002504856926557648
-0.1465140581 -0.1003156006 -0.000638107844163043 -0.00023610266706537586
-0.1411926001 -0.1003156006 -0.0006560808495050869 -0.00022658925880947463
-0.1358711421 -0.1003156006 -0.0006704179956198737 -0.00022850721391021734
-0.1305496842 -0.1003156006 -0.0006846913081836654 -0.0002304341967105217
-0.1252282262 -0.1003156006 -0.0006970538771274491 -0.00023495452668903673
-0.1199067682 -0.1003156006 -0.000704442414688209 -0.00023998308413136814
-0.1145853102 -0.1003156006 -0.000710804381609155 -0.0002447669011086893
-0.1092638522 -0.1003156006 -0.0007172248610160857 -0.00024867986464033125
-0.1039423943 -0.1003156006 -0.0007239902004839001 -0.000252139546664756
-0.09862093627 -0.1003156006 -0.0007451775000045969 -0.00023788419823045785
-0.09329947084 -0.1003156006 -0.0007672025045579818 -0.00022232562175529726
-0.08797801286 -0.1003156006 -0.0007896027353279719 -0.00020678050653843028
-0.08265655488 -0.1003156006 -0.0008113864894063579 -0.00019180042341613007
-0.0773350969 -0.1003156006 -0.0008326816018641782 -0.00018553539231749505
-0.07201363891 -0.1003156006 -0.0008540154188404783 -0.00017931350197372998
-0.06669218093 -0.1003156006 -0.0008754894146322192 -0.0001730912467554545
-0.06137072667 -0.1003156006 -0.0008958551383175699 -0.00016762683768685083
-0.05604926869 -0.1003156006 -0.0009076799015996905 -0.00017091645261581266
-0.05072781071 -0.1003156006 -0.0009179893861030923 -0.00017598170238547912
-0.045406349 -0.1003156006 -0.000928483096904961 -0.00018094537107291316
-0.04008489102 -0.1003156006 -0.0009384863803698156 -0.00018617688334163422
-0.03476343304 -0.1003156006 -0.0009481611699535624 -0.0001908252582541315
-0.02944197692 -0.1003156006 -0.000957720596157832 -0.00019399464009565358
-0.02412051894 -0.1003156006 -0.0009671612722979725 -0.00019708017212663223
-0.01879905909 -0.1003156006 -0.0009766907224486598 -0.00019999409131846212
-0.01347760204 -0.1003156006 -0.0009860997843068342 -0.0002030849744000154
-0.00815614406 -0.1003156006 -0.000997417829175672 -0.00020361435575798199
-0.00283468538 -0.1003156006 -0.001009978716770157 -0.00020220847957990395
0.002486772602 -0.1003156006 -0.0010229505058877448 -0.00020075010923710718
0.007808230817 -0.1003156006 -0.0010359455568774538 -0.00019930690585373155
0.0131296888 -0.1003156006 -0.0010487629577238308 -0.0001978781938537607
0.01845114678 -0.1003156006 -0.0010621067230378593 -0.00019981581660537612
0.02377260476 -0.1003156006 -0.0010759427659591625 -0.00020437825175198622
0.02909406275 -0.1003156006 -0.0010902549379615562 -0.00020934221756526488
0.03441552073 -0.1003156006 -0.0011044791467184334 -0.00021430398833066107
0.03973697871 -0.1003156006 -0.0011185338865252453 -0.00021892240832309986
0.04505843669 -0.1003156006 -0.0011255006569759177 -0.00022483311823382992
0.05037989467 -0.1003156006 -0.0011232252210891175 -0.00023320719088758553
0.05570135266 -0.1003156006 -0.0011202546206259022 -0.00024228305684715598
0.06102281436 -0.1003156006 -0.0011171618164456188 -0.00025140033252431823
0.06634426862 -0.1003156006 -0.0011149523872921693 -0.00025999344697553235
0.0716657266 -0.1003156006 -0.0011124091328803042 -0.00026822350792173424
0.07698718458 -0.1003156006 -0.001109962637821468 -0.00026017149558154294
0.08230864257 -0.1003156006 -0.0011075015373646034 -0.00025096074360920855
0.08763010055 -0.1003156006 -0.001105204828008431 -0.0002413896855479404
0.09295155853 -0.1003156006 -0.0011031870533002937 -0.00023216511520575552
0.09827301651 -0.1003156006 -0.0011008217628924975 -0.0002231771423089585
0.1035944745 -0.1003156006 -0.0010999813582832612 -0.00021706596705715328
0.1089159325 -0.1003156006 -0.0011025348327142483 -0.0002171077039949839
0.1142373979 -0.1003156006 -0.0011050022115436083 -0.0002171571399575323
0.1195588559 -0.1003156006 -0.0011069340784536706 -0.00021593711672067862
0.1248803139 -0.1003156006 -0.0011092036677720159 -0.00021517991686428653
0.1302017719 -0.1003156006 -0.001111299120492841 -0.00021469202131190983
0.1355232298 -0.1003156006 -0.0010996764678826334 -0.0002155342066980276
0.1408446878 -0.1003156006 -0.0010782114099197083 -0.00021682335581922513
0.1461661458 -0.1003156006 -0.0010579671003326228 -0.00021697457982415975
0.1514876038 -0.1003156006 -0.001037730647078806 -0.00021712625653655732
0.1568090618 -0.1003156006 -0.0010174218801074187 -0.00021728414746703258
0.1621305197 -0.1003156006 -0.0009972258749722008 -0.00021751373517811984
0.1674519777 -0.1003156006 -0.0009738104060548595 -0.0001869596537254882
0.1727734357 -0.1003156006 -0.0009490007269443105 -0.00014305437920249613
0.1780948937 -0.1003156006 -0.0009244412637393469 -9.915254593726293e-05
0.1834163517 -0.1003156006 -0.0008997180699099806 -5.524268797022739e-05
0.1887378097 -0.1003156006 -0.0008764721240433229 -1.2189793824321042e-05
0.1940592676 -0.1003156006 -0.0008555544228709354 2.933676171833992e-05
0.1993807256 -0.1003156006 -0.0008701587054467235 8.082370935272244e-05
0.2047021836 -0.1003156006 -0.0008958730530563592 0.00013554064357175548
0.2100236416 -0.1003156006 -0.00092190765878529 0.00019022389608517134
0.2153450996 -0.1003156006 -0.0009472993402958624 0.00024072795977170164
0.2206665576 -0.1003156006 -0.0009722194058985472 0.0002928317823562655
0.2259880155 -0.1003156006 -0.0009977407274439046 0.00034490637431996426
0.2313094735 -0.1003156006 -0.0010580482616797645 0.00036147452160148854
0.2366309315 -0.1003156006 -0.0011242480982950308 0.0003668273538137489
0.2419523895 -0.1003156006 -0.001188572480635487 0.0003720470124101065
0.2472738475 -0.1003156006 -0.0012523033826614119 0.0003773826494537941
0.2525953054 -0.1003156006 -0.0013131719395746914 0.000382941233050633
0.2579167783 -0.1003156006 -0.0013709504039518708 0.0003877586466539392
0.2632382214 -0.1003156006 -0.0014131550724054956 0.00034705854687135037
0.2685596943 -0.1003156006 -0.0014524432583259753 0.00029404456444573986
0.2738811374 -0.1003156006 -0.0014937687077882394 0.00023949617813221694
0.2792026103 -0.1003156006 -0.0015335047238580124 0.00018615780430184176
0.2845240533 -0.1003156006 -0.0015699191854695147 0.00013642713526406715
0.2898455262 -0.1003156006 -0.00160640447115992 8.668454598653162e-05
0.2951669693 -0.1003156006 -0.0015864282019394343 1.9680285456939483e-05
0.3004884422 -0.1003156006 -0.0015576925195196507 -4.9392490377057426e-05
0.3058098853 -0.1003156006 -0.0015312386904141899 -0.00011183361273790016
0.3111313581 -0.1003156006 -0.0015045638678240546 -0.00017427358862190875
0.3164528012 -0.1003156006 -0.001478018183689945 -0.00023669075139672111
0.3217742741 -0.1003156006 -0.0014500264600960865 -0.0002985013618210625
0.3270957172 -0.1003156006 -0.0013707214125597662 -0.0003237240389853991
0.3324171901 -0.1003156006 -0.0012911374996007151 -0.000348929870159564
0.3377386332 -0.1003156006 -0.0012116713378021349 -0.00037411167465577655
0.343060106 -0.1003156006 -0.0011320692164014602 -0.00039930886921958164
0.3483815491 -0.1003156006 -0.001058758180868423 -0.00042125697360715085
0.353703022 -0.1003156006 -0.0009836772897799512 -0.0004262700247672738
0.3590244651 -0.1003156006 -0.0009024523832452182 -0.00039388519998096783
0.364345938 -0.1003156006 -0.0008208237635644245 -0.00036150943518798074
0.369667381 -0.1003156006 -0.0007462246118932412 -0.0003305923622372802
0.3749888539 -0.1003156006 -0.0006696839597764822 -0.0002991682635967737
0.380310297 -0.1003156006 -0.0005929118464077158 -0.0002677402765873396
0.3856317699 -0.1003156006 -0.0005401064940406206 -0.0002004018198524443
0.390953213 -0.1003156006 -0.0004997999838724173 -0.00012747595138161896
0.3962746859 -0.1003156006 -0.0004599164649188045 -5.540512161402602e-05
0.4015961289 -0.1003156006 -0.0004202925835617356 1.6397027411795702e-05
0.4069176018 -0.1003156006 -0.00038205484953738244 8.796420142274975e-05
0.4122390449 -0.1003156006 -0.00036828592492748247 0.00015783002348300425
0.4175605178 -0.1003156006 -0.0003863185679633741 0.0002350627043756722
0.4228819609 -0.1003156006 -0.00040433249840143127 0.00031445240719239987
0.4282034338 -0.1003156006 -0.000422634467846402 0.00039385366021074913
0.4335248768 -0.1003156006 -0.0004394794421825114 0.00046579073783592723
0.4388463497 -0.1003156006 -0.00046738744321550183 0.0005295665937483078
0.4441677928 -0.1003156006 -0.0005250963360525589 0.0005713380324757224
0.4494892657 -0.1003156006 -0.0005820331820178448 0.000612598535969347
0.4548107088 -0.1003156006 -0.0006347837184717571 0.0006515254771572699
0.4601321816 -0.1003156006 -0.0006896648833692181 0.0006918180870460015
0.4654536247 -0.1003156006 -0.0007468923569713476 0.0007139615039370125
0.4707750976 -0.1003156006 -0.0008051041053994608 0.0007083873687858092
0.4760965407 -0.1003156006 -0.0008590385123381681 0.0007042297093645817
0.4814180136 -0.1003156006 -0.0009126276830260419 0.0007000750411632136
0.4867394567 -0.1003156006 -0.0009667793551978453 0.0006957103755058679
0.4920609295 -0.1003156006 -0.001002705663321869 0.0006645844915535679
0.4973823726 -0.1003156006 -0.0010316821446583577 0.0006276654420026878
0.5027038455 -0.1003156006 -0.0010611410836900762 0.000590841408274022
0.5080252886 -0.1003156006 -0.0010909548132632388 0.0005540588808018391
0.5133467317 -0.1003156006 -0.0011018934106310583 0.0005157509217791564
0.5186682343 -0.1003156006 -0.0010941938051549514 0.00046454170413470433
0.5239896774 -0.1003156006 -0.001086890004696217 0.00041333890203233806
0.5293111205 -0.1003156006 -0.0010790097518122916 0.00036381065038684204
0.5346325636 -0.1003156006 -0.001055469539815012 0.0003210497321849055
0.5399540663 -0.1003156006 -0.0010105697028375744 0.00027545137182801745
0.5452755094 -0.1003156006 -0.0009651351706667097 0.0002277407685059143
0.5505969524 -0.1003156006 -0.00092155692407615 0.0001846559368549944
0.5559183955 -0.1003156006 -0.0008556329640810097 0.0001564776236695094
0.5612398982 -0.1003156006 -0.0007769801006351352 0.00012673229040641645
0.5665613413 -0.1003156006 -0.0006994059755812037 9.777983952792465e-05
0.5718827844 -0.1003156006 -0.0006181165943761731 8.37935829726168e-05
0.5772042274 -0.1003156006 -0.0005172582234938427 8.132162935311342e-05
0.5825257301 -0.1003156006 -0.00041563356615727145 7.866856464478201e-05
0.5878471732 -0.1003156006 -0.0003135013163618198 9.002802342839593e-05
0.5931686163 -0.1003156006 -0.0002017021559456046 0.0001168780755773422
0.5984900594 -0.1003156006 -8.942477400152035e-05 0.0001419715408145066
0.6038115621 -0.1003156006 2.8365753647018294e-05 0.00019034604409206332
0.6091330051 -0.1003156006 0.0001431711555733558 0.00024379494840832676
0.6144544482 -0.1003156006 0.0002639867301341968 0.0003129274856958817
0.6197758913 -0.1003156006 0.00037914767752619057 0.0003962774704969882
0.625097394 -0.1003156006 0.0004922724503146081 0.0004889158917889054
0.6304188371 -0.1003156006 0.00060337442969626 0.000601691715155319
0.6357402802 -0.1003156006 0.000704358285324427 0.0007201369771764853
0.6410617828 -0.1003156006 0.000802736971653994 0.0008527657954132536
0.6463832259 -0.1003156006 0.0008933732880393362 0.000996626265710253
0.651704669 -0.1003156006 0.0009792638864190859 0.0011483835383950664
0.6570261121 -0.1003156006 0.0010480212666123597 0.0013108222432027799
0.6623476148 -0.1003156006 0.001109591594114327 0.0014818312497992367
0.6676690578 -0.1003156006 0.0011625419121799752 0.0016609314844918586
0.6729905009 -0.1003156006 0.0011977748061759704 0.0018480090813157042
0.678311944 -0.1003156006 0.00122222177979217 0.002037223588183483
0.6836334467 -0.1003156006 0.0012365924899120852 0.0022321928808393624
0.6889548898 -0.1003156006 0.0012363615252891978 0.0024312837675056955
0.6942763329 -0.1003156006 0.0012226287300332248 0.002632366090888069
0.6995977759 -0.1003156006 0.0011962831849419689 0.0028353659027737913
0.7049192786 -0.1003156006 0.001158125929090796 0.0030372537901737643
0.7102407217 -0.1003156006 0.0011060113443575029 0.003239697760838007
0.7155621648 -0.1003156006 0.001039258933308352 0.0034399655868136824
0.7208836079 -0.1003156006 0.0009603692764941173 0.0036371210819089706
0.7262051105 -0.1003156006 0.0008705778566873089 0.003831561336064585
0.7315265536 -0.1003156006 0.0007666704527542523 0.004023122221944982
0.7368479967 -0.1003156006 0.0006478133271678532 0.00420890231469209
0.7421694398 -0.1003156006 0.0005168099171835594 0.004391921715827462
0.7474909425 -0.1003156006 0.0003790421516365593 0.004564083065668748
0.7528123856 -0.1003156006 0.00022489918552924106 0.004733812910190385
0.7581338286 -0.1003156006 5.963980146523382e-05 0.004895871208386378
-0.3008363545 -0.09699654579 -8.883216188649059e-05 -0.0005961340174013856
-0.2955148816 -0.09699654579 -7.640343275473925e-05 -0.0005677117394783128
-0.2901934385 -0.09699654579 -8.642932998856297e-05 -0.000540934517564828
-0.2848719656 -0.09699654579 -0.00012139973846009404 -0.0005286069590649981
-0.2795505226 -0.09699654579 -0.00015515406596553695 -0.000520658960854503
-0.2742290497 -0.09699654579 -0.00019352580640639487 -0.0005153375985013427
-0.2689076066 -0.09699654579 -0.00023446918082139413 -0.000517179348968435
-0.2635861337 -0.09699654579 -0.0002754091265267122 -0.0005060018689677804
-0.2582646906 -0.09699654579 -0.0003057484325266462 -0.000459483878768259
-0.2529432178 -0.09699654579 -0.00034866804578835553 -0.00040962099908090934
-0.2476217598 -0.09699654579 -0.00039120601385316423 -0.00035644685030285716
-0.2423003018 -0.09699654579 -0.00041874914461959765 -0.0003134070476261088
-0.2369788438 -0.09699654579 -0.0004020674288327729 -0.00029540726524778134
-0.2316573858 -0.09699654579 -0.00037100326614774003 -0.0002883867023975895
-0.2263359278 -0.09699654579 -0.0003378585870807144 -0.00029277150267861026
-0.2210144699 -0.09699654579 -0.0003875585661256614 -0.000289361102472457
-0.2156930119 -0.09699654579 -0.00044971445263747284 -0.00028771464372029463
-0.2103715539 -0.09699654579 -0.0005269501355622999 -0.0002888411803959637
-0.2050500959 -0.09699654579 -0.0005432162552826222 -0.00029059572134212405
-0.1997286379 -0.09699654579 -0.0005318038350890553 -0.0002879776538408298
-0.19440718 -0.09699654579 -0.0005214781860993203 -0.00028560858658100986
-0.189085722 -0.09699654579 -0.0005223737386115012 -0.00028907348790391046
-0.183764264 -0.09699654579 -0.0005291919739845831 -0.0002946492089672194
-0.178442806 -0.09699654579 -0.0005284592771961834 -0.00030555818974534985
-0.173121348 -0.09699654579 -0.0005364928363611065 -0.0003027673170870978
-0.16779989 -0.09699654579 -0.0005504807040460948 -0.00029101808351197905
-0.1624784321 -0.09699654579 -0.0005665055248701007 -0.0002764574978517061
-0.1571569741 -0.09699654579 -0.000584531846155182 -0.00026062034418402404
-0.1518355161 -0.09699654579 -0.000607736278414062 -0.00024349103732673776
-0.1465140581 -0.09699654579 -0.0006322683270199085 -0.0002240241865646934
-0.1411926001 -0.09699654579 -0.0006544939973947898 -0.0002107468829431903
-0.1358711421 -0.09699654579 -0.0006667183983987481 -0.00021582891044849258
-0.1305496842 -0.09699654579 -0.0006776240822441429 -0.00022264675136282077
-0.1252282262 -0.09699654579 -0.00068784630730429 -0.0002300837710692405
-0.1199067682 -0.09699654579 -0.0006935690074250262 -0.00023441015430799027
-0.1145853102 -0.09699654579 -0.0006987912213529142 -0.00023835752257508154
-0.1092638522 -0.09699654579 -0.0007043541706219166 -0.0002416007568537652
-0.1039423943 -0.09699654579 -0.0007108029506062327 -0.00024314505480180082
-0.09862093627 -0.09699654579 -0.0007327362206329865 -0.00022753400370707416
-0.09329947084 -0.09699654579 -0.0007552575978389983 -0.00021158034986631867
-0.08797801286 -0.09699654579 -0.000777991584128236 -0.00019527470998302598
-0.08265655488 -0.09699654579 -0.0008003233273135705 -0.00017973754869490623
-0.0773350969 -0.09699654579 -0.0008200726101899916 -0.0001743950435146106
-0.07201363891 -0.09699654579 -0.0008390796448839844 -0.00016978023069554648
-0.06669218093 -0.09699654579 -0.0008575099458742805 -0.00016514668774956297
-0.06137072667 -0.09699654579 -0.0008736451910326158 -0.0001605181800761506
-0.05604926869 -0.09699654579 -0.0008826968687300137 -0.00016430576555798756
-0.05072781071 -0.09699654579 -0.0008906192803596407 -0.00016970963292955155
-0.045406349 -0.09699654579 -0.0008986202859378524 -0.00017510736057645642
-0.04008489102 -0.09699654579 -0.0009063891808278586 -0.0001806444300268106
-0.03476343304 -0.09699654579 -0.0009147136109160542 -0.000185371870974804
-0.02944197692 -0.09699654579 -0.0009242297695521788 -0.00018787214764079857
-0.02412051894 -0.09699654579 -0.0009336731256451331 -0.00019043545106932211
-0.01879905909 -0.09699654579 -0.0009430511877502678 -0.0001929183923254665
-0.01347760204 -0.09699654579 -0.0009528418747799029 -0.000195285563058717
-0.00815614406 -0.09699654579 -0.0009646039847427854 -0.0001953706514925829
-0.00283468538 -0.09699654579 -0.000978255015000117 -0.00019375078836258606
0.002486772602 -0.09699654579 -0.000992025778670283 -0.0001920565607794038
0.007808230817 -0.09699654579 -0.0010057931734075778 -0.00019032060465023904
0.0131296888 -0.09699654579 -0.001019168765739109 -0.0001886718396975314
0.01845114678 -0.09699654579 -0.0010335937714416054 -0.00019118792162457087
0.02377260476 -0.09699654579 -0.0010488981605149288 -0.00019668739330138215
0.02909406275 -0.09699654579 -0.0010645033698646641 -0.0002025859920240191
0.03441552073 -0.09699654579 -0.0010804310496713794 -0.00020851776866942913
0.03973697871 -0.09699654579 -0.0010953505437766998 -0.0002140646873571715
0.04505843669 -0.09699654579 -0.0011032627025924248 -0.00022131087695332683
0.05037989467 -0.09699654579 -0.0011005297621779317 -0.00023134741546386271
0.05570135266 -0.09699654579 -0.0010975187762903434 -0.00024161866326671103
0.06102281436 -0.09699654579 -0.001095096193819558 -0.0002522867875259022
0.06634426862 -0.09699654579 -0.0010924518918556845 -0.0002621793027135344
0.0716657266 -0.09699654579 -0.0010894879844575644 -0.00027207833575448463
0.07698718458 -0.09699654579 -0.0010879691561563548 -0.00026225640699623163
0.08230864257 -0.09699654579 -0.0010860901854172131 -0.0002514477656172323
0.08763010055 -0.09699654579 -0.0010843519838940495 -0.00024088345128657135
0.09295155853 -0.09699654579 -0.0010825732361921907 -0.00023053237874356834
0.09827301651 -0.09699654579 -0.0010807510250908834 -0.00022006904939766143
0.1035944745 -0.09699654579 -0.0010808115751313801 -0.00021399714608723837
0.1089159325 -0.09699654579 -0.0010847348586370711 -0.00021636487715160198
0.1142373979 -0.09699654579 -0.0010882340239822788 -0.00021802575495189885
0.1195588559 -0.09699654579 -0.0010910325594793075 -0.00021913379692557606
0.1248803139 -0.09699654579 -0.0010940171839969144 -0.00022024208306309356
0.1302017719 -0.09699654579 -0.0010971155934088473 -0.00022181472911831062
0.1355232298 -0.09699654579 -0.001083808932236556 -0.00022572196470788122
0.1408446878 -0.09699654579 -0.0010602796806030207 -0.00022842703732113635
0.1461661458 -0.09699654579 -0.0010372236878616343 -0.0002310841215274225
0.1514876038 -0.09699654579 -0.0010141735955106865 -0.00023372971818059189
0.1568090618 -0.09699654579 -0.0009912041264366262 -0.00023635678154884892
0.1621305197 -0.09699654579 -0.0009692411208970126 -0.00023813418934279343
0.1674519777 -0.09699654579 -0.0009433179720745997 -0.0002040961748446706
0.1727734357 -0.09699654579 -0.0009158592204073921 -0.00015714058896274937
0.1780948937 -0.09699654579 -0.0008865954328818558 -0.00010912722216093814
0.1834163517 -0.09699654579 -0.0008577948107701239 -6.149721354528665e-05
0.1887378097 -0.09699654579 -0.0008330861923196482 -1.608827572905004e-05
0.1940592676 -0.09699654579 -0.000808592937199609 2.9338721124127964e-05
0.1993807256 -0.09699654579 -0.0008262994556798273 8.785771798101477e-05
0.2047021836 -0.09699654579 -0.0008555612712604707 0.00014993120498464415
0.2100236416 -0.09699654579 -0.0008848563368230192 0.0002071795249762117
0.2153450996 -0.09699654579 -0.0009137805296275088 0.00026391405060547215
0.2206665576 -0.09699654579 -0.000942951406559219 0.00032064654936010743
0.2259880155 -0.09699654579 -0.0009719675431294054 0.0003775252156707803
0.2313094735 -0.09699654579 -0.0010383720253103095 0.0003937512422176979
0.2366309315 -0.09699654579 -0.0011116281206012956 0.00040014647174182707
0.2419523895 -0.09699654579 -0.0011850664928388151 0.0004065261021680751
0.2472738475 -0.09699654579 -0.001258300448689379 0.0004129094153861401
0.2525953054 -0.09699654579 -0.0013278243554121945 0.00041869097148008625
0.2579167783 -0.09699654579 -0.0013946195484202122 0.0004242626993958588
0.2632382214 -0.09699654579 -0.0014474549186995938 0.0003759769143353235
0.2685596943 -0.09699654579 -0.0014970954052114399 0.000316458089736034
0.2738811374 -0.09699654579 -0.001544835859538656 0.00025900664774902585
0.2792026103 -0.09699654579 -0.0015897487774630924 0.00020431561887020424
0.2845240533 -0.09699654579 -0.0016349523920226301 0.00014899964966675702
0.2898455262 -0.09699654579 -0.0016815239570230223 9.252117271170605e-05
0.2951669693 -0.09699654579 -0.001661838511179335 1.764564511064287e-05
0.3004884422 -0.09699654579 -0.00163502076384261 -5.503540866235297e-05
0.3058098853 -0.09699654579 -0.0016054475887454511 -0.0001278143028204279
0.3111313581 -0.09699654579 -0.0015757658703769595 -0.0002006053962944259
0.3164528012 -0.09699654579 -0.0015469728077030715 -0.00027088543846481795
0.3217742741 -0.09699654579 -0.0015159528621526868 -0.0003341688708984
0.3270957172 -0.09699654579 -0.0014304948843143189 -0.00036281131359676324
0.3324171901 -0.09699654579 -0.0013450443215173502 -0.00039146588343079897
0.3377386332 -0.09699654579 -0.0012619761610298112 -0.0004188366772091141
0.343060106 -0.09699654579 -0.0011811215987981255 -0.0004450650491233148
0.3483815491 -0.09699654579 -0.0010997068821014839 -0.0004713693210514679
0.353703022 -0.09699654579 -0.0010151419404676335 -0.0004765287923510548
0.3590244651 -0.09699654579 -0.0009265445771511586 -0.00044173769218003355
0.364345938 -0.09699654579 -0.0008429180426214362 -0.0004080990212545285
0.369667381 -0.09699654579 -0.0007593705660592384 -0.00037443374455809885
0.3749888539 -0.09699654579 -0.0006744838467833394 -0.00034133162200023333
0.380310297 -0.09699654579 -0.0005930094200226812 -0.0003088958020687222
0.3856317699 -0.09699654579 -0.0005414480809639472 -0.00023999285663370854
0.390953213 -0.09699654579 -0.0004957956871083411 -0.0001598860004168742
0.3962746859 -0.09699654579 -0.00044833208751492235 -7.7889717784476e-05
0.4015961289 -0.09699654579 -0.00040407780722673904 3.953517223181409e-07
0.4069176018 -0.09699654579 -0.00036174017250883707 7.556757391317084e-05
0.4122390449 -0.09699654579 -0.0003458998424349988 0.00015603070135190037
0.4175605178 -0.09699654579 -0.0003643255518463849 0.0002435605104005974
0.4228819609 -0.09699654579 -0.0003818650954374849 0.00032524969921644386
0.4282034338 -0.09699654579 -0.00039850302548553467 0.000404588387866161
0.4335248768 -0.09699654579 -0.000415468031561703 0.0004844616005250137
0.4388463497 -0.09699654579 -0.00044782201900196207 0.0005568917851184764
0.4441677928 -0.09699654579 -0.0005083665493488872 0.0006003950179408256
0.4494892657 -0.09699654579 -0.0005686733770049066 0.0006440123220340529
0.4548107088 -0.09699654579 -0.0006301112143538474 0.0006877620066628879
0.4601321816 -0.09699654579 -0.0006908761719852314 0.0007309482583994004
0.4654536247 -0.09699654579 -0.0007479708584652121 0.000751990779580626
0.4707750976 -0.09699654579 -0.0008098796113987442 0.0007453361636442881
0.4760965407 -0.09699654579 -0.0008743752080875932 0.0007376438452992164
0.4814180136 -0.09699654579 -0.0009364739770584662 0.0007309269045612896
0.4867394567 -0.09699654579 -0.0009943702056127452 0.0007254155277247107
0.4920609295 -0.09699654579 -0.0010320636934889823 0.0006901256323983741
0.4973823726 -0.09699654579 -0.0010645555142436464 0.0006471279050111029
0.5027038455 -0.09699654579 -0.0010956277562076911 0.0006068238617619625
0.5080252886 -0.09699654579 -0.0011266409407776643 0.0005657511598727994
0.5133467317 -0.09699654579 -0.0011395720263380348 0.0005164486440842457
0.5186682343 -0.09699654579 -0.0011315108237201594 0.0004588895205099017
0.5239896774 -0.09699654579 -0.0011230134076634529 0.0004076594168299815
0.5293111205 -0.09699654579 -0.0011145454841408945 0.00035313966385993266
0.5346325636 -0.09699654579 -0.0010887965622745082 0.0002970139581497085
0.5399540663 -0.09699654579 -0.0010417135682794245 0.0002465993682115964
0.5452755094 -0.09699654579 -0.0009960539356536219 0.00019900740726483081
0.5505969524 -0.09699654579 -0.0009490496913553321 0.00014844677445437088
0.5559183955 -0.09699654579 -0.0008750344846133928 0.00010844775496459153
0.5612398982 -0.09699654579 -0.0007970985499863539 7.851132710641911e-05
0.5665613413 -0.09699654579 -0.000717735444499056 4.8245460386001786e-05
0.5718827844 -0.09699654579 -0.0006249576772128835 2.2774308638298684e-05
0.5772042274 -0.09699654579 -0.0005213476894985457 1.8182343674259878e-05
0.5825257301 -0.09699654579 -0.00041807535513116125 1.3527433931767657e-05
0.5878471732 -0.09699654579 -0.00030393330358402624 1.7440552401782288e-05
0.5931686163 -0.09699654579 -0.00018698847281518882 4.265714672688254e-05
0.5984900594 -0.09699654579 -6.488993950250549e-05 6.813371689019141e-05
0.6038115621 -0.09699654579 5.6956169488240555e-05 0.00011396401134652555
0.6091330051 -0.09699654579 0.00018466037446687852 0.00017246909742448617
0.6144544482 -0.09699654579 0.0003069461876035188 0.00023752154038975094
0.6197758913 -0.09699654579 0.00043046575384651927 0.0003265696820294072
0.625097394 -0.09699654579 0.000551698972468846 0.0004198736676698168
0.6304188371 -0.09699654579 0.0006672203148122085 0.0005332881143772894
0.6357402802 -0.09699654579 0.0007844468322086402 0.0006565134940124401
0.6410617828 -0.09699654579 0.0008876732958591969 0.000790377172545897
0.6463832259 -0.09699654579 0.0009857338960538738 0.0009394224010354186
0.651704669 -0.09699654579 0.001076291434838154 0.0010986604845946632
0.6570261121 -0.09699654579 0.0011501256735122697 0.0012692070281223767
0.6623476148 -0.09699654579 0.0012160592542210626 0.0014462749544895777
0.6676690578 -0.09699654579 0.0012732791132875367 0.001632291740871861
0.6729905009 -0.09699654579 0.0013141303436921868 0.0018253809483962569
0.678311944 -0.09699654579 0.0013450331703394698 0.0020258747012634392
0.6836334467 -0.09699654579 0.0013636549562330174 0.0022283926342356822
0.6889548898 -0.09699654579 0.0013653679726913744 0.002434145777082055
0.6942763329 -0.09699654579 0.0013533786209912356 0.002643918877480829
0.6995977759 -0.09699654579 0.0013283899666887728 0.002855958153327423
0.7049192786 -0.09699654579 0.001289276886084174 0.003066566946385307
0.7102407217 -0.09699654579 0.0012369472586409031 0.003276845024368376
0.7155621648 -0.09699654579 0.001168223953840299 0.003484608498060691
0.7208836079 -0.09699654579 0.0010870940119858147 0.0036920544191183682
0.7262051105 -0.09699654579 0.0009930444600578083 0.003895834776880785
0.7315265536 -0.09699654579 0.0008881573044248149 0.004092316191784592
0.7368479967 -0.09699654579 0.0007682873597737068 0.004288144342894886
0.7421694398 -0.09699654579 0.0006352267875825126 0.004476155516112715
0.7474909425 -0.09699654579 0.0004908936821483544 0.004659953704182917
0.7528123856 -0.09699654579 0.00033460096987371346 0.004834648105719073
0.7581338286 -0.09699654579 0.00016451387450009254 0.005003054811878775
-0.3008363545 -0.09367749095 -7.958685199298387e-05 -0.0005883133386295501
-0.2955148816 -0.09367749095 -7.07718755492862e-05 -0.0005583505925566849
-0.2901934385 -0.09367749095 -5.969201497399806e-05 -0.0005213727533051
-0.2848719656 -0.09367749095 -7.862521636542426e-05 -0.000506363370035865
-0.2795505226 -0.09367749095 -0.0001135603151599303 -0.0004992406710860592
-0.2742290497 -0.09367749095 -0.00014332343053122682 -0.0004922465961865022
-0.2689076066 -0.09367749095 -0.0001807934128303015 -0.0004895053537577936