VARIABLES = X,Y,phix,phiy
ZONE I=200,J=200,F=POINT 
-0.3008363545 -0.1003156006 0.0013853828474539307 -0.0030496814155287284
-0.2955148816 -0.1003156006 0.001461732800873121 -0.0030421982889376575
-0.2901934385 -0.1003156006 0.0015318275580348145 -0.0030265935352126734
-0.2848719656 -0.1003156006 0.0016040617310366344 -0.003008829088870386
-0.2795505226 -0.1003156006 0.0016822041918543723 -0.002983125336117702
-0.2742290497 -0.1003156006 0.001763858026753167 -0.0029484853345952836
-0.2689076066 -0.1003156006 0.0018509488010890517 -0.0029094200662854166
-0.2635861337 -0.1003156006 0.0019246412759983203 -0.0028605831187407077
-0.2582646906 -0.1003156006 0.001996369976153017 -0.0028007303885922152
-0.2529432178 -0.1003156006 0.002069233506212675 -0.002735254596416316
-0.2476217598 -0.1003156006 0.002144413951607306 -0.002662322160224736
-0.2423003018 -0.1003156006 0.0022050612362093584 -0.002582125675159571
-0.2369788438 -0.1003156006 0.0022541302279988013 -0.0024962442446853222
-0.2316573858 -0.1003156006 0.002304119049676648 -0.0024038001860541987
-0.2263359278 -0.1003156006 0.002348809941424717 -0.0023056878789086896
-0.2210144699 -0.1003156006 0.00237215033402007 -0.0022116815477130863
-0.2156930119 -0.1003156006 0.002394466298164829 -0.0021143498652473752
-0.2103715539 -0.1003156006 0.002413166620280252 -0.0020120969216802535
-0.2050500959 -0.1003156006 0.002415024944493701 -0.001918384746410664
-0.1997286379 -0.1003156006 0.0024154534989793666 -0.0018235412608251997
-0.19440718 -0.1003156006 0.0024116928595698116 -0.001724767838212425
-0.189085722 -0.1003156006 0.0023967112480119436 -0.0016377132914571757
-0.183764264 -0.1003156006 0.0023764329693663705 -0.0015503246933382354
-0.178442806 -0.1003156006 0.0023560268207284177 -0.0014618959794711914
-0.173121348 -0.1003156006 0.002325394502436965 -0.0013826767083248103
-0.16779989 -0.1003156006 0.0022937122938210697 -0.0013076380865324816
-0.1624784321 -0.1003156006 0.002258880341678345 -0.0012311113649777154
-0.1571569741 -0.1003156006 0.00222138010778065 -0.001163216590571789
-0.1518355161 -0.1003156006 0.002180046460383529 -0.001100551976150903
-0.1465140581 -0.1003156006 0.0021381847376754195 -0.0010376894743452342
-0.1411926001 -0.1003156006 0.0020946080265028958 -0.0009782294882616483
-0.1358711421 -0.1003156006 0.0020500101644523806 -0.0009280075553188081
-0.1305496842 -0.1003156006 0.002005412192425776 -0.0008777856044930925
-0.1252282262 -0.1003156006 0.0019588548825869106 -0.0008275914144131102
-0.1199067682 -0.1003156006 0.0019127788533389845 -0.0007858863664317864
-0.1145853102 -0.1003156006 0.0018667791595213773 -0.0007468387100261526
-0.1092638522 -0.1003156006 0.0018196828215022271 -0.0007079473734779696
-0.1039423943 -0.1003156006 0.0017731207319632255 -0.0006691413171969749
-0.09862093627 -0.1003156006 0.0017283916007266313 -0.0006394164888839018
-0.09329947084 -0.1003156006 0.0016828083573494383 -0.0006098969617480045
-0.08797801286 -0.1003156006 0.001637224677643542 -0.0005803774696092509
-0.08265655488 -0.1003156006 0.0015914376721848234 -0.0005511371787271974
-0.0773350969 -0.1003156006 0.0015483139358067916 -0.0005292269777246923
-0.07201363891 -0.1003156006 0.0015053130863962219 -0.0005072270138226464
-0.06669218093 -0.1003156006 0.0014623115836302008 -0.00048522703771363134
-0.06137072667 -0.1003156006 0.0014186375514087524 -0.00046355269113455426
-0.05604926869 -0.1003156006 0.001377416842173285 -0.00044659025813786044
-0.05072781071 -0.1003156006 0.0013369478981309104 -0.0004308635004595905
-0.045406349 -0.1003156006 0.0012967228276107162 -0.0004149782265160017
-0.04008489102 -0.1003156006 0.0012560618912972597 -0.0003993424029565192
-0.03476343304 -0.1003156006 0.0012163021925260687 -0.00038510611973420814
-0.02944197692 -0.1003156006 0.001178893137276129 -0.00037420063251686255
-0.02412051894 -0.1003156006 0.001141367909538564 -0.00036338077408394246
-0.01879905909 -0.1003156006 0.001103682696331179 -0.0003526858542902458
-0.01347760204 -0.1003156006 0.0010661742934194238 -0.0003418490248226308
-0.00815614406 -0.1003156006 0.0010303013647143097 -0.0003330383652550699
-0.00283468538 -0.1003156006 0.0009958845925966014 -0.00032590831460750733
0.002486772602 -0.1003156006 0.0009612019471709585 -0.0003190045260850261
0.007808230817 -0.1003156006 0.0009265128719034307 -0.0003121096238303667
0.0131296888 -0.1003156006 0.0008920506754665754 -0.000305018613101548
0.01845114678 -0.1003156006 0.0008590967104550473 -0.00029948633396716264
0.02377260476 -0.1003156006 0.0008273984568478721 -0.00029523096375971445
0.02909406275 -0.1003156006 0.0007955451052348964 -0.0002911350194886839
0.03441552073 -0.1003156006 0.0007636914965065515 -0.00028703909122235015
0.03973697871 -0.1003156006 0.0007319724925644221 -0.00028280567545287767
0.04505843669 -0.1003156006 0.0007010798575293565 -0.0002792972580530214
0.05037989467 -0.1003156006 0.0006718354866730673 -0.00027729825182348913
0.05570135266 -0.1003156006 0.0006424846496533805 -0.0002753955691985434
0.06102281436 -0.1003156006 0.0006131019099466312 -0.00027353989460314227
0.06634426862 -0.1003156006 0.0005838232460296008 -0.00027156406545291394
0.0716657266 -0.1003156006 0.0005546043707740055 -0.0002695367754065416
0.07698718458 -0.1003156006 0.0005274169748298664 -0.0002693238429205943
0.08230864257 -0.1003156006 0.0005004625029825869 -0.0002692731909496593
0.08763010055 -0.1003156006 0.0004734433523350343 -0.0002692797991751069
0.09295155853 -0.1003156006 0.0004464900271358896 -0.0002692095953380625
0.09827301651 -0.1003156006 0.00041957533727459697 -0.0002691085655075451
0.1035944745 -0.1003156006 0.00039331372620373886 -0.0002694819688722956
0.1089159325 -0.1003156006 0.00036861783616964444 -0.0002708894027742733
0.1142373979 -0.1003156006 0.0003439232498071183 -0.0002722968119657404
0.1195588559 -0.1003156006 0.0003193269003728876 -0.00027352097285325225
0.1248803139 -0.1003156006 0.0002946989457603454 -0.00027479086589271925
0.1302017719 -0.1003156006 0.0002700422443591916 -0.00027613268856103995
0.1355232298 -0.1003156006 0.000246422904007895 -0.00027804364200464113
0.1408446878 -0.1003156006 0.00022371171510207437 -0.00028032756962247557
0.1461661458 -0.1003156006 0.00020104743776315734 -0.0002825448862243266
0.1514876038 -0.1003156006 0.0001783826422473764 -0.00028476214476801846
0.1568090618 -0.1003156006 0.00015571948368402007 -0.0002869794712574975
0.1621305197 -0.1003156006 0.00013304053062792825 -0.00028919362128999713
0.1674519777 -0.1003156006 0.0001114675032378684 -0.0002918945986991239
0.1727734357 -0.1003156006 9.038737743740373e-05 -0.0002949646304251314
0.1780948937 -0.1003156006 6.930607949072778e-05 -0.00029803461514655254
0.1834163517 -0.1003156006 4.822491414982517e-05 -0.0003011046385112754
0.1887378097 -0.1003156006 2.7178407860632125e-05 -0.00030408878870668047
0.1940592676 -0.1003156006 6.177189312796255e-06 -0.00030701832599815896
0.1993807256 -0.1003156006 -1.3757143750477974e-05 -0.0003105136918396926
0.2047021836 -0.1003156006 -3.328239364502538e-05 -0.0003142002569255105
0.2100236416 -0.1003156006 -5.2809912866511185e-05 -0.00031786013090942446
0.2153450996 -0.1003156006 -7.2275894332174e-05 -0.00032137802813903053
0.2206665576 -0.1003156006 -9.176873136138849e-05 -0.00032498839545929407
0.2259880155 -0.1003156006 -0.00011126074081246049 -0.00032859895347975564
0.2313094735 -0.1003156006 -0.00012981081648141 -0.00033260360509949286
0.2366309315 -0.1003156006 -0.00014798918112766724 -0.00033661454623900477
0.2419523895 -0.1003156006 -0.0001661556529509174 -0.0003406261437806464
0.2472738475 -0.1003156006 -0.00018433523656083395 -0.0003446367671137616
0.2525953054 -0.1003156006 -0.00020250340834104913 -0.00034864413597797514
0.2579167783 -0.1003156006 -0.00022064406545774858 -0.0003525576737549233
0.2632382214 -0.1003156006 -0.00023791387153066567 -0.00035684693194266406
0.2685596943 -0.1003156006 -0.00025491921104254525 -0.00036122123077690876
0.2738811374 -0.1003156006 -0.0002719473071473258 -0.0003656632327698854
0.2792026103 -0.1003156006 -0.0002889590858721765 -0.00037004338347447713
0.2845240533 -0.1003156006 -0.00030593537321392387 -0.0003743688928425789
0.2898455262 -0.1003156006 -0.0003229098023571418 -0.0003786945073066732
0.2951669693 -0.1003156006 -0.0003389617750266956 -0.0003833744506792402
0.3004884422 -0.1003156006 -0.00035482357831232575 -0.0003880658923094481
0.3058098853 -0.1003156006 -0.00037065329460376036 -0.00039267977273689774
0.3111313581 -0.1003156006 -0.000386482981723448 -0.0003972937348204804
0.3164528012 -0.1003156006 -0.0004023121897986008 -0.00040190755404048034
0.3217742741 -0.1003156006 -0.00041816306690901553 -0.00040648507542006965
0.3270957172 -0.1003156006 -0.0004329181812174861 -0.0004112457762052953
0.3324171901 -0.1003156006 -0.00044767379860316363 -0.00041604005190228575
0.3377386332 -0.1003156006 -0.00046242937062932035 -0.0004208344546696935
0.343060106 -0.1003156006 -0.00047719006035873315 -0.0004256175541447919
0.3483815491 -0.1003156006 -0.0004919220587997128 -0.00043027328027411566
0.353703022 -0.1003156006 -0.0005063830804438981 -0.00043497339656847517
0.3590244651 -0.1003156006 -0.0005201354476663888 -0.00043974589429477784
0.364345938 -0.1003156006 -0.0005338916439104942 -0.00044451565136020404
0.369667381 -0.1003156006 -0.0005476405307124285 -0.00044915661762032054
0.3749888539 -0.1003156006 -0.0005613932499338875 -0.00045381513084679726
0.380310297 -0.1003156006 -0.0005751448738394505 -0.0004585217342862632
0.3856317699 -0.1003156006 -0.0005882782078305633 -0.00046323399507221794
0.390953213 -0.1003156006 -0.0006011726453997416 -0.0004678349326965825
0.3962746859 -0.1003156006 -0.0006140728705342699 -0.00047244939298998886
0.4015961289 -0.1003156006 -0.000626990216114351 -0.0004770609247123791
0.4069176018 -0.1003156006 -0.0006399103539776927 -0.0004816561496627924
0.4122390449 -0.1003156006 -0.0006525165678537885 -0.00048614757349628673
0.4175605178 -0.1003156006 -0.0006646176582225898 -0.0004906386087350264
0.4228819609 -0.1003156006 -0.00067671318260829 -0.0004952006780071154
0.4282034338 -0.1003156006 -0.0006888138277376689 -0.0004997284305208548
0.4335248768 -0.1003156006 -0.0007009193968235688 -0.0005041692313458273
0.4388463497 -0.1003156006 -0.0007128197387177043 -0.0005085871273958317
0.4441677928 -0.1003156006 -0.0007240872413649803 -0.0005129438771548755
0.4494892657 -0.1003156006 -0.0007353590049762056 -0.0005172512668714668
0.4548107088 -0.1003156006 -0.0007466513184568806 -0.0005214666421606113
0.4601321816 -0.1003156006 -0.0007579295618838268 -0.0005257661991253953
0.4654536247 -0.1003156006 -0.0007688950086590315 -0.0005299950268987597
0.4707750976 -0.1003156006 -0.000779345948975209 -0.0005340332513775881
0.4760965407 -0.1003156006 -0.0007898206317324793 -0.0005380125135578484
0.4814180136 -0.1003156006 -0.0008002963304631961 -0.0005419917791448322
0.4867394567 -0.1003156006 -0.000810759155522295 -0.0005459745857161964
0.4920609295 -0.1003156006 -0.0008206483640115449 -0.000549698320910239
0.4973823726 -0.1003156006 -0.0008303344016527429 -0.0005533471530807229
0.5027038455 -0.1003156006 -0.0008400249810038706 -0.0005570041826528751
0.5080252886 -0.1003156006 -0.0008497288592720678 -0.0005606504640236474
0.5133467317 -0.1003156006 -0.000859117175294174 -0.0005639946169609939
0.5186682343 -0.1003156006 -0.00086801124956235 -0.0005672183166903433
0.5239896774 -0.1003156006 -0.0008768937371259618 -0.0005704792172989739
0.5293111205 -0.1003156006 -0.0008858058241414437 -0.0005736732361134892
0.5346325636 -0.1003156006 -0.0008944286351061058 -0.0005765694197117649
0.5399540663 -0.1003156006 -0.000902532496671259 -0.0005792649770974891
0.5452755094 -0.1003156006 -0.0009105855870915853 -0.0005820433126280526
0.5505969524 -0.1003156006 -0.0009187323571114536 -0.0005846838621255603
0.5559183955 -0.1003156006 -0.000926316075020947 -0.0005868341347422381
0.5612398982 -0.1003156006 -0.0009335758653400114 -0.0005889931036490411
0.5665613413 -0.1003156006 -0.0009408513739019785 -0.0005911212252527688
0.5718827844 -0.1003156006 -0.0009479683188102993 -0.0005928263861946532
0.5772042274 -0.1003156006 -0.0009544633502922577 -0.0005942592359969902
0.5825257301 -0.1003156006 -0.0009609150867066242 -0.0005957283498749397
0.5878471732 -0.1003156006 -0.0009672553197641575 -0.0005967153121549755
0.5931686163 -0.1003156006 -0.0009730077013992204 -0.0005974062284317162
0.5984900594 -0.1003156006 -0.0009787783130076506 -0.0005980905736611776
0.6038115621 -0.1003156006 -0.0009840219399823544 -0.0005982099598756327
0.6091330051 -0.1003156006 -0.0009892110786830712 -0.0005981368722502614
0.6144544482 -0.1003156006 -0.0009937979124555523 -0.000597772601386177
0.6197758913 -0.1003156006 -0.0009982037324027602 -0.0005968593193075934
0.625097394 -0.1003156006 -0.0010022728476264382 -0.0005956370731826447
0.6304188371 -0.1003156006 -0.0010057199183169244 -0.0005938230484195179
0.6357402802 -0.1003156006 -0.0010091459578029966 -0.0005914693823727941
0.6410617828 -0.1003156006 -0.0010119062529882414 -0.0005886536656966818
0.6463832259 -0.1003156006 -0.001014302611188419 -0.0005853341693222996
0.651704669 -0.1003156006 -0.0010163252424964296 -0.0005816757440247439
0.6570261121 -0.1003156006 -0.0010179562078190107 -0.0005769231701607059
0.6623476148 -0.1003156006 -0.001019013246871558 -0.0005716057617191362
0.6676690578 -0.1003156006 -0.0010196561493501623 -0.0005656521865083821
0.6729905009 -0.1003156006 -0.0010196481265527695 -0.0005584143046135175
0.678311944 -0.1003156006 -0.001019458916811199 -0.0005503042861098068
0.6836334467 -0.1003156006 -0.0010187059145043826 -0.0005413307736406857
0.6889548898 -0.1003156006 -0.0010172108397444783 -0.0005311548664483278
0.6942763329 -0.1003156006 -0.0010153279561775457 -0.0005195528720380187
0.6995977759 -0.1003156006 -0.0010130171902534427 -0.0005066824017141016
0.7049192786 -0.1003156006 -0.0010104115542506713 -0.0004923916974348702
0.7102407217 -0.1003156006 -0.0010071826267929848 -0.0004764014416998098
0.7155621648 -0.1003156006 -0.0010036850311730603 -0.0004582795643901807
0.7208836079 -0.1003156006 -0.0010001544468303811 -0.0004381935577035681
0.7262051105 -0.1003156006 -0.0009964033040081527 -0.0004161627351288391
0.7315265536 -0.1003156006 -0.0009925566883999134 -0.0003914837741246777
0.7368479967 -0.1003156006 -0.0009888696133719364 -0.00036345613262215513
0.7421694398 -0.1003156006 -0.000985295947290104 -0.00033266659740747507
0.7474909425 -0.1003156006 -0.0009835200872827727 -0.000300078105569219
0.7528123856 -0.1003156006 -0.000982000597836682 -0.00026308328822179604
0.7581338286 -0.1003156006 -0.0009816762297786138 -0.00022284466227258574
-0.3008363545 -0.09699654579 0.001384398089260776 -0.003091939657064674
-0.2955148816 -0.09699654579 0.0014631951388971707 -0.0030899126320119057
-0.2901934385 -0.09699654579 0.0015452574031318226 -0.0030773517681573935
-0.2848719656 -0.09699654579 0.0016199889098371765 -0.0030564557564220674
-0.2795505226 -0.09699654579 0.001700429738864952 -0.003033450353126592
-0.2742290497 -0.09699654579 0.00178444285059494 -0.003001095112998679
-0.2689076066 -0.09699654579 0.001873737100635342 -0.0029576912343510066
-0.2635861337 -0.09699654579 0.0019627787911249335 -0.0029079727738081334
-0.2582646906 -0.09699654579 0.0020363558358008527 -0.0028510968289358314
-0.2529432178 -0.09699654579 0.0021116158445603243 -0.002781777134406652
-0.2476217598 -0.09699654579 0.0021882570412481623 -0.0027023070504261335
-0.2423003018 -0.09699654579 0.0022600683684820162 -0.0026167941309262633
-0.2369788438 -0.09699654579 0.002312410147943044 -0.0025295547381715467
-0.2316573858 -0.09699654579 0.002360503042239019 -0.002432723298647236
-0.2263359278 -0.09699654579 0.002409793042020733 -0.0023275994670168927
-0.2210144699 -0.09699654579 0.002437132843158762 -0.0022293775648264402
-0.2156930119 -0.09699654579 0.0024560349849824235 -0.0021266855653770686
-0.2103715539 -0.09699654579 0.00247450118641189 -0.0020195853403974025
-0.2050500959 -0.09699654579 0.0024784666633839757 -0.0019195861662430634
-0.1997286379 -0.09699654579 0.002474498589947226 -0.0018206270992583075
-0.19440718 -0.09699654579 0.0024699493463729316 -0.0017195916527347923
-0.189085722 -0.09699654579 0.002452800696903314 -0.0016255266699279401
-0.183764264 -0.09699654579 0.002431127709408644 -0.0015360916089363808
-0.178442806 -0.09699654579 0.0024073427271624997 -0.0014448830939422716
-0.173121348 -0.09699654579 0.0023765146554085795 -0.001363759948128503
-0.16779989 -0.09699654579 0.0023406235351083274 -0.0012862729824639557
-0.1624784321 -0.09699654579 0.0023042409890847676 -0.0012082412763150282
-0.1571569741 -0.09699654579 0.0022628816640617565 -0.0011373700330075598
-0.1518355161 -0.09699654579 0.0022200917504982204 -0.0010738230283960845
-0.1465140581 -0.09699654579 0.0021752830828047597 -0.001010126917131245
-0.1411926001 -0.09699654579 0.0021303947149645297 -0.000949486971324819
-0.1358711421 -0.09699654579 0.002083460332025123 -0.0008992979405810608
-0.1305496842 -0.09699654579 0.0020356282640619423 -0.000849051687677972
-0.1252282262 -0.09699654579 0.0019875856206674394 -0.0007985717319672714
-0.1199067682 -0.09699654579 0.0019387978539511575 -0.0007565914120671952
-0.1145853102 -0.09699654579 0.0018914182833944307 -0.0007174861975369434
-0.1092638522 -0.09699654579 0.0018434412377210854 -0.0006785287056978393
-0.1039423943 -0.09699654579 0.0017943997683914806 -0.000639697199981509
-0.09862093627 -0.09699654579 0.0017482144585403501 -0.0006102579979548411
-0.09329947084 -0.09699654579 0.0017014463236649992 -0.000581039793372351
-0.08797801286 -0.09699654579 0.0016541132664823807 -0.0005520226719407847
-0.08265655488 -0.09699654579 0.0016073648567604135 -0.0005228972891187339
-0.0773350969 -0.09699654579 0.0015635274603155807 -0.0005013063770736535
-0.07201363891 -0.09699654579 0.0015192598844153708 -0.00047989557593847875
-0.06669218093 -0.09699654579 0.001474968436220522 -0.0004584551791977587
-0.06137072667 -0.09699654579 0.001430542084938726 -0.0004370620011851511
-0.05604926869 -0.09699654579 0.0013883354811536825 -0.0004205636539807625
-0.05072781071 -0.09699654579 0.0013472873491918236 -0.0004051133178950427
-0.045406349 -0.09699654579 0.0013062373325413291 -0.0003896629673247078
-0.04008489102 -0.09699654579 0.001264884699245511 -0.00037441746258663506
-0.03476343304 -0.09699654579 0.0012242781874836767 -0.0003606751422070521
-0.02944197692 -0.09699654579 0.0011862086406212702 -0.00035024444057375466
-0.02412051894 -0.09699654579 0.0011481970074472667 -0.00033977842542212987
-0.01879905909 -0.09699654579 0.0011101372851495006 -0.0003293387545721207
-0.01347760204 -0.09699654579 0.0010719619553542113 -0.00031898842770904486
-0.00815614406 -0.09699654579 0.0010355322888936148 -0.00031064097266397735
-0.00283468538 -0.09699654579 0.0010006328615019722 -0.00030393351372334456
0.002486772602 -0.09699654579 0.0009656401671257055 -0.000297308678932491
0.007808230817 -0.09699654579 0.0009306273681626211 -0.0002907069689377915
0.0131296888 -0.09699654579 0.000895688067782499 -0.0002840339816324501
0.01845114678 -0.09699654579 0.0008623489515405643 -0.00027891579467657793
0.02377260476 -0.09699654579 0.0008303302421197616 -0.000274994808077269
0.02909406275 -0.09699654579 0.000798217230822929 -0.0002711640052336029
0.03441552073 -0.09699654579 0.000766084595046714 -0.0002673560677035398
0.03973697871 -0.09699654579 0.0007340649547324821 -0.00026343356125699393
0.04505843669 -0.09699654579 0.0007028779151345192 -0.00026030010832690743
0.05037989467 -0.09699654579 0.0006733543205240063 -0.0002586081896404995
0.05570135266 -0.09699654579 0.000643814551534359 -0.00025691707509014505
0.06102281436 -0.09699654579 0.0006141987428160135 -0.00025531227365107543
0.06634426862 -0.09699654579 0.0005846973280204794 -0.00025359342017084905
0.0716657266 -0.09699654579 0.0005551964650403861 -0.00025187459355172326
0.07698718458 -0.09699654579 0.000527824081938011 -0.00025199576297229973
0.08230864257 -0.09699654579 0.0005006462933441956 -0.0002522395700840806
0.08763010055 -0.09699654579 0.00047351127758050077 -0.00025241804591354767
0.09295155853 -0.09699654579 0.000446382275613223 -0.00025256702263163564
0.09827301651 -0.09699654579 0.00041924238130873557 -0.0002527601716886671
0.1035944745 -0.09699654579 0.00039283630954272693 -0.00025345460379937645
0.1089159325 -0.09699654579 0.0003680004216131683 -0.0002551277877737877
0.1142373979 -0.09699654579 0.00034321893014431227 -0.0002566836610897393
0.1195588559 -0.09699654579 0.0003184715460687021 -0.00025819742475401456
0.1248803139 -0.09699654579 0.00029372323152134216 -0.0002597111821113423
0.1302017719 -0.09699654579 0.00026895071700755083 -0.0002612444278062612
0.1355232298 -0.09699654579 0.00024526871053979897 -0.00026339012919046715
0.1408446878 -0.09699654579 0.00022249767537063054 -0.0002658196318632015
0.1461661458 -0.09699654579 0.00019971053228707298 -0.00026825199460537414
0.1514876038 -0.09699654579 0.00017692845765822859 -0.0002706821496738459
0.1568090618 -0.09699654579 0.00015414552367204465 -0.0002731123755902833
0.1621305197 -0.09699654579 0.0001314118695803103 -0.00027543140366691546
0.1674519777 -0.09699654579 0.00010979398433569098 -0.0002783853331283178
0.1727734357 -0.09699654579 8.864884613755967e-05 -0.0002815826111731309
0.1780948937 -0.09699654579 6.746752974204859e-05 -0.0002848244197221179
0.1834163517 -0.09699654579 4.630224939134491e-05 -0.00028803333501918865
0.1887378097 -0.09699654579 2.519307040759295e-05 -0.00029116864114521186
0.1940592676 -0.09699654579 4.0848897500674195e-06 -0.0002943039123245615
0.1993807256 -0.09699654579 -1.5880016593685702e-05 -0.0002980171877758993
0.2047021836 -0.09699654579 -3.547774651678114e-05 -0.00030189218976424897
0.2100236416 -0.09699654579 -5.502683318121333e-05 -0.0003056185707261567
0.2153450996 -0.09699654579 -7.457285296936355e-05 -0.00030936771311781833
0.2206665576 -0.09699654579 -9.411939712662747e-05 -0.0003131169640021349
0.2259880155 -0.09699654579 -0.00011366093945717359 -0.0003168569460078059
0.2313094735 -0.09699654579 -0.00013221130524495821 -0.0003208961223817525
0.2366309315 -0.09699654579 -0.00015044685873505248 -0.00032506534606075344
0.2419523895 -0.09699654579 -0.00016868215507638996 -0.0003292345024360964
0.2472738475 -0.09699654579 -0.0001869168421890129 -0.00033340370394369323
0.2525953054 -0.09699654579 -0.00020512374415997494 -0.00033747461787075433
0.2579167783 -0.09699654579 -0.00022330939610017798 -0.0003415302481193955
0.2632382214 -0.09699654579 -0.00024060565869510266 -0.00034600651900593745
0.2685596943 -0.09699654579 -0.000257676953481188 -0.0003505719194520282
0.2738811374 -0.09699654579 -0.0002747255908433108 -0.0003550529020745608
0.2792026103 -0.09699654579 -0.0002917486608826297 -0.00035950351782398476
0.2845240533 -0.09699654579 -0.0003087747532804966 -0.00036392812355569054
0.2898455262 -0.09699654579 -0.0003258165850384892 -0.0003684191169562366
0.2951669693 -0.09699654579 -0.000341861323629261 -0.00037320664885979863
0.3004884422 -0.09699654579 -0.00035775037551425955 -0.0003779955315769091
0.3058098853 -0.09699654579 -0.0003736318952392219 -0.0003827820019531623
0.3111313581 -0.09699654579 -0.00038951320534804073 -0.00038756841065311636
0.3164528012 -0.09699654579 -0.00040538059419209423 -0.0003922772157774563
0.3217742741 -0.09699654579 -0.0004211932241226774 -0.000396952991520452
0.3270957172 -0.09699654579 -0.0004359571896877403 -0.0004018717668870709
0.3324171901 -0.09699654579 -0.0004507219634716064 -0.00040679073837465496
0.3377386332 -0.09699654579 -0.0004654799665811132 -0.0004116367754158639
0.343060106 -0.09699654579 -0.0004802339280587176 -0.0004164323647690422
0.3483815491 -0.09699654579 -0.0004949880505657091 -0.00042127576180073164
0.353703022 -0.09699654579 -0.0005094239529547138 -0.0004261506356130197
0.3590244651 -0.09699654579 -0.00052317200405626 -0.0004310103182457373
0.364345938 -0.09699654579 -0.000536917929409094 -0.00043583413826639195
0.369667381 -0.09699654579 -0.00055067972022153 -0.00044065895200286686
0.3749888539 -0.09699654579 -0.0005644316316742067 -0.0004454818096087044
0.380310297 -0.09699654579 -0.0005781852334585873 -0.00045021741166340485
0.3856317699 -0.09699654579 -0.000591283806041602 -0.0004549365465021762
0.390953213 -0.09699654579 -0.0006041799527514749 -0.00045964373991196636
0.3962746859 -0.09699654579 -0.0006170782165528341 -0.00046441269743642197
0.4015961289 -0.09699654579 -0.0006299766264643142 -0.00046909063292014226
0.4069176018 -0.09699654579 -0.0006428738141539249 -0.00047375202357796356
0.4122390449 -0.09699654579 -0.0006554347859098059 -0.00047842109389193094
0.4175605178 -0.09699654579 -0.000667507849102496 -0.000483099934885758
0.4228819609 -0.09699654579 -0.0006795858291356329 -0.0004876627676487243
0.4282034338 -0.09699654579 -0.0006916649885173249 -0.0004922229324068756
0.4335248768 -0.09699654579 -0.0007037343729947344 -0.0004967825092698163
0.4388463497 -0.09699654579 -0.0007155890224182133 -0.0005013352765096153
0.4441677928 -0.09699654579 -0.0007268258776391898 -0.0005057642289780297
0.4494892657 -0.09699654579 -0.0007380732921035707 -0.0005101903238473331
0.4548107088 -0.09699654579 -0.0007493238402955067 -0.0005146202043665174
0.4601321816 -0.09699654579 -0.000760581555102225 -0.0005189990423285317
0.4654536247 -0.09699654579 -0.0007715271050825301 -0.0005232232958525225
0.4707750976 -0.09699654579 -0.0007819497155444455 -0.0005273281212811493
0.4760965407 -0.09699654579 -0.000792356873708354 -0.0005315154766503203
0.4814180136 -0.09699654579 -0.0008027839312310307 -0.0005356206115202699
0.4867394567 -0.09699654579 -0.0008132310992520659 -0.0005396803574061889
0.4920609295 -0.09699654579 -0.0008230334469859045 -0.0005435271960515304
0.4973823726 -0.09699654579 -0.0008326484651719413 -0.0005473156451028559
0.5027038455 -0.09699654579 -0.0008423043144103457 -0.0005509805034879498
0.5080252886 -0.09699654579 -0.0008519401727284928 -0.0005547228117554711
0.5133467317 -0.09699654579 -0.0008612009351866953 -0.000558310990800602
0.5186682343 -0.09699654579 -0.0008700158745927353 -0.0005616589250835305
0.5239896774 -0.09699654579 -0.0008788877625411558 -0.0005649126073298757
0.5293111205 -0.09699654579 -0.0008877337873239021 -0.0005681953120316363
0.5346325636 -0.09699654579 -0.000896184065145772 -0.0005713779473630286
0.5399540663 -0.09699654579 -0.0009042033840060374 -0.0005741796116902554
0.5452755094 -0.09699654579 -0.000912251160359006 -0.0005769530661689305
0.5505969524 -0.09699654579 -0.0009202703774196212 -0.0005797529052306234
0.5559183955 -0.09699654579 -0.0009276447285800723 -0.0005822080106114262
0.5612398982 -0.09699654579 -0.0009348805516690188 -0.0005843964760088433
0.5665613413 -0.09699654579 -0.0009421000917310683 -0.0005865879985920183
0.5718827844 -0.09699654579 -0.0009489295135522995 -0.0005886679978800134
0.5772042274 -0.09699654579 -0.0009553685235113607 -0.0005901817095452296
0.5825257301 -0.09699654579 -0.0009618087298180825 -0.0005916942269468998
0.5878471732 -0.09699654579 -0.0009678164924594007 -0.0005931122695526646
0.5931686163 -0.09699654579 -0.0009735031823344633 -0.000593914632814293
0.5984900594 -0.09699654579 -0.0009790544684727873 -0.0005948007684137497
0.6038115621 -0.09699654579 -0.00098416071150569 -0.0005951341659260089
0.6091330051 -0.09699654579 -0.000988914666433304 -0.0005952296265066901
0.6144544482 -0.09699654579 -0.0009935654931126632 -0.0005950305182467288
0.6197758913 -0.09699654579 -0.000997531435432833 -0.0005942456742131119
0.625097394 -0.09699654579 -0.001001445312790188 -0.0005932400394921397
0.6304188371 -0.09699654579 -0.0010046883932610614 -0.0005915705480135454
0.6357402802 -0.09699654579 -0.001007552103267404 -0.0005898192229715018
0.6410617828 -0.09699654579 -0.0010102485324105413 -0.0005872910301776197
0.6463832259 -0.09699654579 -0.0010122227269238765 -0.0005842722483394968
0.651704669 -0.09699654579 -0.0010138550359684749 -0.0005807412194421047
0.6570261121 -0.09699654579 -0.0010149173334476633 -0.0005761730958901594
0.6623476148 -0.09699654579 -0.001015649567535374 -0.0005710350825303006
0.6676690578 -0.09699654579 -0.001015680278281813 -0.0005652513030785538
0.6729905009 -0.09699654579 -0.0010152756814888158 -0.0005584873660216173
0.678311944 -0.09699654579 -0.0010142106184403198 -0.0005509552397475006
0.6836334467 -0.09699654579 -0.0010127852783903748 -0.0005425015771437254
0.6889548898 -0.09699654579 -0.001010811583132222 -0.0005325835530007
0.6942763329 -0.09699654579 -0.0010081190496102558 -0.0005213371337810892
0.6995977759 -0.09699654579 -0.0010047351054782582 -0.000508917899852048
0.7049192786 -0.09699654579 -0.001001081917295849 -0.0004949225329670846
0.7102407217 -0.09699654579 -0.0009969137005151562 -0.0004790964428107767
0.7155621648 -0.09699654579 -0.000992194597977099 -0.0004609661293385038
0.7208836079 -0.09699654579 -0.000986835452347117 -0.0004409750664284659
0.7262051105 -0.09699654579 -0.000981326396569707 -0.0004185768152186582
0.7315265536 -0.09699654579 -0.0009762154304392769 -0.00039403972976370904
0.7368479967 -0.09699654579 -0.0009705309180959194 -0.0003664232586832767
0.7421694398 -0.09699654579 -0.0009655473302443941 -0.0003354309747530805
0.7474909425 -0.09699654579 -0.0009608588959536442 -0.0003016192858459763
0.7528123856 -0.09699654579 -0.0009575711500671352 -0.00026408183818868653
0.7581338286 -0.09699654579 -0.0009556195815444427 -0.0002229453291129418
-0.3008363545 -0.09367749095 0.0013826264188673601 -0.003137156829435787
-0.2955148816 -0.09367749095 0.0014640120411556678 -0.0031375423199872204
-0.2901934385 -0.09367749095 0.0015523725112328312 -0.003127521640688985
-0.2848719656 -0.09367749095 0.001637828133547112 -0.00311108113786514
-0.2795505226 -0.09367749095 0.0017183687013911377 -0.003085884437932155
-0.2742290497 -0.09367749095 0.001807263269797167 -0.0030535594710618978
-0.2689076066 -0.09367749095 0.0018980759459215587 -0.003013654131339156