VARIABLES = X,Y,phix,phiy
ZONE I=200,J=200,F=POINT 
-0.3008363545 -0.1003156006 -0.0007872994843274266 -0.00014220010772693367
-0.2955148816 -0.1003156006 -0.0007944183447603139 -0.00012125222201280294
-0.2901934385 -0.1003156006 -0.0007807849518953163 -0.0001160480943803044
-0.2848719656 -0.1003156006 -0.0007677677548147228 -0.00011091838987257954
-0.2795505226 -0.1003156006 -0.0007524886291052039 -0.00011279573763541833
-0.2742290497 -0.1003156006 -0.0007339594258301113 -0.00012673511381687406
-0.2689076066 -0.1003156006 -0.0007038978509049104 -0.0001367006872032378
-0.2635861337 -0.1003156006 -0.000678435520618907 -0.00014745584985444583
-0.2582646906 -0.1003156006 -0.0006618461832009496 -0.000167930042558241
-0.2529432178 -0.1003156006 -0.0006412898355930367 -0.0002009456943889726
-0.2476217598 -0.1003156006 -0.0006258696922758023 -0.0002396003173171484
-0.2423003018 -0.1003156006 -0.0005868697464230403 -0.00024793528119997635
-0.2369788438 -0.1003156006 -0.000529833994710548 -0.00023729962899615226
-0.2316573858 -0.1003156006 -0.000468856270122288 -0.00022719757406344421
-0.2263359278 -0.1003156006 -0.0003889819172924524 -0.00020502397939949215
-0.2210144699 -0.1003156006 -0.0003181983255899425 -0.00014834702659317315
-0.2156930119 -0.1003156006 -0.00024713524248308385 -8.333437286141852e-05
-0.2103715539 -0.1003156006 -0.00015774695403412988 -4.432172346239837e-06
-0.2050500959 -0.1003156006 -0.00018850338354995974 6.131334877258669e-05
-0.1997286379 -0.1003156006 -0.00022787808779251533 0.00013115157943285427
-0.19440718 -0.1003156006 -0.00026922945162146734 0.00020936770866177308
-0.189085722 -0.1003156006 -0.00030070555690629914 0.00025127730463579933
-0.183764264 -0.1003156006 -0.0003345851998466706 0.00028492158311827935
-0.178442806 -0.1003156006 -0.00037411247407636395 0.0003248645543245156
-0.173121348 -0.1003156006 -0.0004220822015599576 0.00035480369581970746
-0.16779989 -0.1003156006 -0.0004727548942340358 0.0003814575977109725
-0.1624784321 -0.1003156006 -0.000522434052445206 0.00039555568296654396
-0.1571569741 -0.1003156006 -0.0005645637191622155 0.0004008551346929136
-0.1518355161 -0.1003156006 -0.0006042781642738413 0.00039110396388284486
-0.1465140581 -0.1003156006 -0.0006425123732562149 0.0003790473281171936
-0.1411926001 -0.1003156006 -0.0006831170282326185 0.0003705840323968246
-0.1358711421 -0.1003156006 -0.0007158667486387482 0.0003650583751502556
-0.1305496842 -0.1003156006 -0.0007482405219352953 0.00035955279118019223
-0.1252282262 -0.1003156006 -0.0007817264483543754 0.0003551336709576911
-0.1199067682 -0.1003156006 -0.0008143105210953796 0.00035168700044825
-0.1145853102 -0.1003156006 -0.0008463545284542677 0.0003463469493467138
-0.1092638522 -0.1003156006 -0.0008782825839969272 0.0003400789376863339
-0.1039423943 -0.1003156006 -0.0009097467703950967 0.0003352057321645764
-0.09862093627 -0.1003156006 -0.0009301173837125851 0.00031894833449227323
-0.09329947084 -0.1003156006 -0.0009489436078506508 0.0003014736219430489
-0.08797801286 -0.1003156006 -0.0009680797033905556 0.000283992036332356
-0.08265655488 -0.1003156006 -0.0009876019474994576 0.000267208542697131
-0.0773350969 -0.1003156006 -0.0010026352035750496 0.00025564459059237223
-0.07201363891 -0.1003156006 -0.0010174137513301825 0.00024441179459934193
-0.06669218093 -0.1003156006 -0.0010321119801421307 0.0002331652493417147
-0.06137072667 -0.1003156006 -0.001046247306925833 0.00022226642456003108
-0.05604926869 -0.1003156006 -0.0010675920196858888 0.00021404739688777282
-0.05072781071 -0.1003156006 -0.001090032074841808 0.00020551907734371168
-0.045406349 -0.1003156006 -0.001112385438066955 0.00019708477136730988
-0.04008489102 -0.1003156006 -0.001134707644028478 0.00018884796119154058
-0.03476343304 -0.1003156006 -0.00115501225080502 0.00017721960742960772
-0.02944197692 -0.1003156006 -0.0011694538055071247 0.00015677328093637299
-0.02412051894 -0.1003156006 -0.0011834111030999618 0.00013587370402887833
-0.01879905909 -0.1003156006 -0.0011968034708648258 0.00011429415525955527
-0.01347760204 -0.1003156006 -0.0012108683594723249 9.346931603034042e-05
-0.00815614406 -0.1003156006 -0.001216511187896216 7.216935510961787e-05
-0.00283468538 -0.1003156006 -0.0012150086503979968 5.009320075422509e-05
0.002486772602 -0.1003156006 -0.0012118807251213107 2.757360493467139e-05
0.007808230817 -0.1003156006 -0.0012085861974812824 5.052348610224281e-06
0.0131296888 -0.1003156006 -0.0012070171286850215 -1.7103636407652805e-05
0.01845114678 -0.1003156006 -0.0012041482947172386 -3.595428791024538e-05
0.02377260476 -0.1003156006 -0.0011988907657765658 -5.2558055087555984e-05
0.02909406275 -0.1003156006 -0.0011930851801667615 -6.943120624293752e-05
0.03441552073 -0.1003156006 -0.0011872474163611914 -8.629208743497317e-05
0.03973697871 -0.1003156006 -0.0011821519957588861 -0.00010295589901338674
0.04505843669 -0.1003156006 -0.0011781752132821155 -0.00011860672374825125
0.05037989467 -0.1003156006 -0.0011718203710870522 -0.00013351231529418208
0.05570135266 -0.1003156006 -0.0011650237631131675 -0.00014845745622716044
0.06102281436 -0.1003156006 -0.0011579207215220817 -0.00016359905284108205
0.06634426862 -0.1003156006 -0.0011515036046893057 -0.00017854231740439857
0.0716657266 -0.1003156006 -0.0011453803665598804 -0.00019341846184783013
0.07698718458 -0.1003156006 -0.0011325143360133296 -0.00020878187826665244
0.08230864257 -0.1003156006 -0.0011189421977313852 -0.000224418931625654
0.08763010055 -0.1003156006 -0.0011047364792684488 -0.00024017457198018377
0.09295155853 -0.1003156006 -0.0010908527609359284 -0.0002556425311305344
0.09827301651 -0.1003156006 -0.0010774062557119355 -0.00027105497265764796
0.1035944745 -0.1003156006 -0.0010627111056891094 -0.0002846657840802572
0.1089159325 -0.1003156006 -0.0010427106813602034 -0.0002944598953609724
0.1142373979 -0.1003156006 -0.0010227461251070178 -0.00030427049745757924
0.1195588559 -0.1003156006 -0.0010040627530980037 -0.00031326170896772725
0.1248803139 -0.1003156006 -0.0009849584054503235 -0.0003224478867425227
0.1302017719 -0.1003156006 -0.0009652576128779259 -0.00033197526009009484
0.1355232298 -0.1003156006 -0.000942484637021419 -0.0003341969136904964
0.1408446878 -0.1003156006 -0.0009171967794206208 -0.00033089029983583853
0.1461661458 -0.1003156006 -0.0008931742309691452 -0.00032783157140642624
0.1514876038 -0.1003156006 -0.0008691055942965112 -0.0003247629902627167
0.1568090618 -0.1003156006 -0.0008452623293580182 -0.0003216981795232828
0.1621305197 -0.1003156006 -0.0008212047393735825 -0.00031862532314905174
0.1674519777 -0.1003156006 -0.0008038242501686602 -0.00030554099255769286
0.1727734357 -0.1003156006 -0.0007889805537473032 -0.00028861291633912084
0.1780948937 -0.1003156006 -0.0007739182523976682 -0.0002716883674119597
0.1834163517 -0.1003156006 -0.0007590655771602414 -0.00025476694698186783
0.1887378097 -0.1003156006 -0.0007447212076137686 -0.00023799208969442137
0.1940592676 -0.1003156006 -0.0007322085705162617 -0.00022185529048975754
0.1993807256 -0.1003156006 -0.0007298341543423847 -0.00020204713449385256
0.2047021836 -0.1003156006 -0.0007302946853212409 -0.00018121122289972548
0.2100236416 -0.1003156006 -0.0007310699717329123 -0.00016023063297284252
0.2153450996 -0.1003156006 -0.0007324757407342396 -0.00014008119534319137
0.2206665576 -0.1003156006 -0.000734046965872597 -0.00011998937936968086
0.2259880155 -0.1003156006 -0.0007352474628001284 -9.986562121170807e-05
0.2313094735 -0.1003156006 -0.0007506008158748493 -8.266208282146807e-05
0.2366309315 -0.1003156006 -0.0007699015598339259 -6.760367260178737e-05
0.2419523895 -0.1003156006 -0.0007893053037669532 -5.351148006286016e-05
0.2472738475 -0.1003156006 -0.0008084417412702638 -3.9505914837384065e-05
0.2525953054 -0.1003156006 -0.000824538034527567 -2.5992169938732016e-05
0.2579167783 -0.1003156006 -0.0008413482557837262 -1.2945376600050106e-05
0.2632382214 -0.1003156006 -0.0008783073570973819 -1.2148976097673285e-05
0.2685596943 -0.1003156006 -0.0009207821448644421 -1.3821606403381741e-05
0.2738811374 -0.1003156006 -0.0009641233050308406 -1.4719484910081216e-05
0.2792026103 -0.1003156006 -0.0010071963244295123 -1.6261081840710724e-05
0.2845240533 -0.1003156006 -0.0010472788126713755 -1.9588434300043915e-05
0.2898455262 -0.1003156006 -0.0010877537898212192 -2.2930469230530288e-05
0.2951669693 -0.1003156006 -0.0011373770428774763 -6.79673090818561e-05
0.3004884422 -0.1003156006 -0.0011880595203239528 -0.00011944404964002754
0.3058098853 -0.1003156006 -0.0012333916845841118 -0.0001689875540667372
0.3111313581 -0.1003156006 -0.0012783839843420993 -0.0002185594557019233
0.3164528012 -0.1003156006 -0.0013239439516515824 -0.0002681324685821944
0.3217742741 -0.1003156006 -0.0013682061754663431 -0.00031848421855552704
0.3270957172 -0.1003156006 -0.0013682243204446677 -0.00040826832147359036
0.3324171901 -0.1003156006 -0.0013671691768955 -0.0004980880238750242
0.3377386332 -0.1003156006 -0.0013669346119680938 -0.000587920602097407
0.343060106 -0.1003156006 -0.0013663815654762507 -0.0006777302905877785
0.3483815491 -0.1003156006 -0.0013639505321227934 -0.0007611317512702299
0.353703022 -0.1003156006 -0.001341824544092377 -0.0008425243877697703
0.3590244651 -0.1003156006 -0.001275424480421643 -0.000920965153468522
0.364345938 -0.1003156006 -0.0012093194973877882 -0.0009993944413364845
0.369667381 -0.1003156006 -0.0011464372903257937 -0.0010716441527736998
0.3749888539 -0.1003156006 -0.001082383948975653 -0.0011454297113252664
0.380310297 -0.1003156006 -0.0010185475847646235 -0.001220010005466865
0.3856317699 -0.1003156006 -0.0009232372377499566 -0.0012600492560495048
0.390953213 -0.1003156006 -0.0008241138980423584 -0.0012864283274273466
0.3962746859 -0.1003156006 -0.000726374348239402 -0.0013126990224974148
0.4015961289 -0.1003156006 -0.0006285947513143036 -0.0013393954622210038
0.4069176018 -0.1003156006 -0.0005302001143369006 -0.0013663348061322593
0.4122390449 -0.1003156006 -0.00044036249685177784 -0.0013692379737286384
0.4175605178 -0.1003156006 -0.00035036172901540294 -0.0013383085936303203
0.4228819609 -0.1003156006 -0.00025821684644173964 -0.001306403185254174
0.4282034338 -0.1003156006 -0.0001661931442162237 -0.0012745253346165683
0.4335248768 -0.1003156006 -8.192661682213233e-05 -0.001246274557180927
0.4388463497 -0.1003156006 -8.389638990068144e-06 -0.0012082736329586672
0.4441677928 -0.1003156006 3.527266970809904e-05 -0.0011437660417903705
0.4494892657 -0.1003156006 7.843918534147924e-05 -0.0010804296214160824
0.4548107088 -0.1003156006 0.00011951591042877365 -0.0010222381312791362
0.4601321816 -0.1003156006 0.00016172544704523746 -0.00096101444497953
0.4654536247 -0.1003156006 0.00018449396982410921 -0.000899567067707156
0.4707750976 -0.1003156006 0.0001774491275604999 -0.000840422408997519
0.4760965407 -0.1003156006 0.00017157320066660562 -0.0007858848498703093
0.4814180136 -0.1003156006 0.00016601114720445382 -0.0007313120291490554
0.4867394567 -0.1003156006 0.00016041047157358806 -0.0006763659270800807
0.4920609295 -0.1003156006 0.00012996183903397364 -0.0006403608891508038
0.4973823726 -0.1003156006 9.34945877807542e-05 -0.0006114177691609149
0.5027038455 -0.1003156006 5.690240982499505e-05 -0.0005823411597092217
0.5080252886 -0.1003156006 2.0043271907451457e-05 -0.0005532710679618162
0.5133467317 -0.1003156006 -1.5279945373119046e-05 -0.0005414009032288661
0.5186682343 -0.1003156006 -5.9608292325876466e-05 -0.000547917162166839
0.5239896774 -0.1003156006 -0.00010436931192560286 -0.0005543096625756373
0.5293111205 -0.1003156006 -0.00014704813661438063 -0.0005605685143865489
0.5346325636 -0.1003156006 -0.00018028122238119106 -0.0005779970943707892
0.5399540663 -0.1003156006 -0.00021003662163626564 -0.0006132292865799695
0.5452755094 -0.1003156006 -0.000241368187149208 -0.0006496061011149402
0.5505969524 -0.1003156006 -0.00026926751352166677 -0.000683360325462922
0.5559183955 -0.1003156006 -0.00027964340789976116 -0.000726795338033835
0.5612398982 -0.1003156006 -0.0002859998470243572 -0.0007796877188685112
0.5665613413 -0.1003156006 -0.0002921809264648618 -0.0008317332373150232
0.5718827844 -0.1003156006 -0.0002883497401521832 -0.0008799484332931531
0.5772042274 -0.1003156006 -0.0002703194898046763 -0.0009356202432100767
0.5825257301 -0.1003156006 -0.000251966584791401 -0.0009915584652040415
0.5878471732 -0.1003156006 -0.00022538226460382197 -0.0010421998906056762
0.5931686163 -0.1003156006 -0.00018720618735545337 -0.0010922117042953046
0.5984900594 -0.1003156006 -0.00014932570265095214 -0.0011432666512987723
0.6038115621 -0.1003156006 -9.842766826151555e-05 -0.0011855869002787129
0.6091330051 -0.1003156006 -4.6590273625318576e-05 -0.0012242503381354442
0.6144544482 -0.1003156006 1.4487061534633468e-05 -0.0012572535848585286
0.6197758913 -0.1003156006 7.813823417054105e-05 -0.001280446188911947
0.625097394 -0.1003156006 0.0001433855253861919 -0.0012980939953793178
0.6304188371 -0.1003156006 0.0002120796334838753 -0.0013030220077387344
0.6357402802 -0.1003156006 0.0002773355886856288 -0.0013018987390684997
0.6410617828 -0.1003156006 0.0003423421923476765 -0.001292015658511665
0.6463832259 -0.1003156006 0.0004048145693684324 -0.0012723005228353545
0.651704669 -0.1003156006 0.000464924223555608 -0.0012464198983184298
0.6570261121 -0.1003156006 0.0005147343116583943 -0.0012113499470098295
0.6623476148 -0.1003156006 0.0005575355225777842 -0.0011705259146074169
0.6676690578 -0.1003156006 0.0005949881901164358 -0.001123447456752739
0.6729905009 -0.1003156006 0.0006182926603128829 -0.0010716297902984475
0.678311944 -0.1003156006 0.0006337437826544338 -0.0010194602757659993
0.6836334467 -0.1003156006 0.0006404423069936402 -0.0009643679525395638
0.6889548898 -0.1003156006 0.0006333828724596023 -0.0009073015028160355
0.6942763329 -0.1003156006 0.000613551408036154 -0.0008542402741606677
0.6995977759 -0.1003156006 0.0005833856280407304 -0.0008036749029810748
0.7049192786 -0.1003156006 0.0005411003600720223 -0.0007549886975537248
0.7102407217 -0.1003156006 0.0004856987078648242 -0.0007135124369631354
0.7155621648 -0.1003156006 0.00041617110252028497 -0.0006799555852477025
0.7208836079 -0.1003156006 0.00033672371588858673 -0.0006568524915520365
0.7262051105 -0.1003156006 0.00024493539543492363 -0.0006440968120760428
0.7315265536 -0.1003156006 0.0001407890876904044 -0.0006440346813481869
0.7368479967 -0.1003156006 2.096928264659146e-05 -0.0006647561179715263
0.7421694398 -0.1003156006 -0.00010949035831443647 -0.0007006199564899316
0.7474909425 -0.1003156006 -0.0002400702560342216 -0.0007541919526867596
0.7528123856 -0.1003156006 -0.00038680096203524495 -0.0008357168309030422
0.7581338286 -0.1003156006 -0.0005419508061728257 -0.0009423888856596446
-0.3008363545 -0.09699654579 -0.0007848832461599537 -0.00014611661029496236
-0.2955148816 -0.09699654579 -0.0008032398074350371 -0.00013095410818356299
-0.2901934385 -0.09699654579 -0.0007959847896551309 -0.00011853079704711936
-0.2848719656 -0.09699654579 -0.0007812330237005808 -0.00011549658671659112
-0.2795505226 -0.09699654579 -0.0007640684884845938 -0.00012428165988901722
-0.2742290497 -0.09699654579 -0.0007423781912209011 -0.00013314444136798643
-0.2689076066 -0.09699654579 -0.0007077725204182692 -0.00014483240756080397
-0.2635861337 -0.09699654579 -0.0006642923343184548 -0.00015379400899078496
-0.2582646906 -0.09699654579 -0.0006492375863208921 -0.00017004774439705655
-0.2529432178 -0.09699654579 -0.0006341089998227144 -0.00020489551361302884
-0.2476217598 -0.09699654579 -0.0006210153345187426 -0.00025514308418594456
-0.2423003018 -0.09699654579 -0.000585272979425405 -0.0002889711177929042
-0.2369788438 -0.09699654579 -0.0005349559749418721 -0.0002828022872640643
-0.2316573858 -0.09699654579 -0.00046357014168391727 -0.00026998464103209977
-0.2263359278 -0.09699654579 -0.000392724271211411 -0.00024737197490902664
-0.2210144699 -0.09699654579 -0.00032089407283772994 -0.00018544028779198866
-0.2156930119 -0.09699654579 -0.00023322419579773886 -0.00010437356815373627
-0.2103715539 -0.09699654579 -0.00013867263884963127 -6.02920814687814e-06
-0.2050500959 -0.09699654579 -0.00014410914737838905 7.97475376555929e-05
-0.1997286379 -0.09699654579 -0.0001857673001152767 0.0001583221466134902
-0.19440718 -0.09699654579 -0.00022828496809933167 0.00024349806923947622
-0.189085722 -0.09699654579 -0.0002745697325578984 0.00030785081029784496
-0.183764264 -0.09699654579 -0.00032344583041293184 0.0003521936015742495
-0.178442806 -0.09699654579 -0.0003739697912409154 0.00039843226865449594
-0.173121348 -0.09699654579 -0.00042440331470620615 0.0004277976596749746
-0.16779989 -0.09699654579 -0.00047406624134632973 0.0004350642986584882
-0.1624784321 -0.09699654579 -0.0005316059932637916 0.00042802840109991473
-0.1571569741 -0.09699654579 -0.0005830446395092666 0.0004209597646088646
-0.1518355161 -0.09699654579 -0.0006276725712988413 0.0004071665252701796
-0.1465140581 -0.09699654579 -0.0006750971488297142 0.0003957857891642316
-0.1411926001 -0.09699654579 -0.0007169100423844202 0.00038895438687656724
-0.1358711421 -0.09699654579 -0.0007502515070366479 0.00038474414626321705
-0.1305496842 -0.09699654579 -0.0007825148507089796 0.0003817509921843218
-0.1252282262 -0.09699654579 -0.0008172314384064059 0.00037912922459523143
-0.1199067682 -0.09699654579 -0.0008498915971037718 0.0003732994531501042
-0.1145853102 -0.09699654579 -0.0008814576405932294 0.00036678763382855554
-0.1092638522 -0.09699654579 -0.0009130764962981459 0.0003593555848760498
-0.1039423943 -0.09699654579 -0.0009430849013449823 0.0003519115526029785
-0.09862093627 -0.09699654579 -0.0009603847697670523 0.0003335515040525209
-0.09329947084 -0.09699654579 -0.0009768044330328725 0.00031436658990509906
-0.08797801286 -0.09699654579 -0.0009920275478042737 0.00029449629391817544
-0.08265655488 -0.09699654579 -0.0010084795852660197 0.0002764633700630584
-0.0773350969 -0.09699654579 -0.001022510604360989 0.0002655375182043385
-0.07201363891 -0.09699654579 -0.00103550837359773 0.0002552559027400744
-0.06669218093 -0.09699654579 -0.0010484315372514214 0.0002450288112201723
-0.06137072667 -0.09699654579 -0.0010597017275761939 0.00023454661636889218
-0.05604926869 -0.09699654579 -0.001078933802131768 0.0002265002734459102
-0.05072781071 -0.09699654579 -0.0010995382462885824 0.00021835002508977753
-0.045406349 -0.09699654579 -0.0011201689378554339 0.0002102045850328766
-0.04008489102 -0.09699654579 -0.001140544762901528 0.00020209968422715412
-0.03476343304 -0.09699654579 -0.0011584814626666687 0.00018978227571801888
-0.02944197692 -0.09699654579 -0.0011688458492178741 0.00016629503886488555
-0.02412051894 -0.09699654579 -0.001180047055993932 0.00014311010642045066
-0.01879905909 -0.09699654579 -0.0011906380703255765 0.00011967471129828421
-0.01347760204 -0.09699654579 -0.0012006230392065573 9.559507643375106e-05
-0.00815614406 -0.09699654579 -0.001202800195124662 7.241624580006858e-05
-0.00283468538 -0.09699654579 -0.0011977424821390777 4.952594852591746e-05
0.002486772602 -0.09699654579 -0.001192379912287546 2.6539549849512283e-05
0.007808230817 -0.09699654579 -0.0011871438567721143 3.423024124889545e-06
0.0131296888 -0.09699654579 -0.001181975118456844 -1.9515847485506674e-05
0.01845114678 -0.09699654579 -0.001176217022573727 -3.892489685595096e-05
0.02377260476 -0.09699654579 -0.0011692392129349406 -5.600255795714349e-05
0.02909406275 -0.09699654579 -0.001161616646143487 -7.308477304276466e-05
0.03441552073 -0.09699654579 -0.0011541008383936509 -9.020417431057738e-05
0.03973697871 -0.09699654579 -0.0011469731534118166 -0.00010721827625288351
0.04505843669 -0.09699654579 -0.001141575196971431 -0.00012327056303388344
0.05037989467 -0.09699654579 -0.001134489868137919 -0.00013850917854647612
0.05570135266 -0.09699654579 -0.0011278769589797841 -0.00015361338413383865
0.06102281436 -0.09699654579 -0.001121132740827786 -0.00016890093593240662
0.06634426862 -0.09699654579 -0.0011142374286453106 -0.00018414234420606712
0.0716657266 -0.09699654579 -0.0011077946241343007 -0.0001993755889622581
0.07698718458 -0.09699654579 -0.0010951070145980948 -0.0002155888021245617
0.08230864257 -0.09699654579 -0.0010817589562270443 -0.00023209482280913977
0.08763010055 -0.09699654579 -0.0010681781435509794 -0.0002482186998880933
0.09295155853 -0.09699654579 -0.0010546380202541786 -0.0002644030048233935
0.09827301651 -0.09699654579 -0.001041300959109213 -0.00028075691287051416
0.1035944745 -0.09699654579 -0.0010259320269453912 -0.0002951858414362802
0.1089159325 -0.09699654579 -0.0010043950060333673 -0.00030584193608144494
0.1142373979 -0.09699654579 -0.0009839949915428224 -0.0003162364886911128
0.1195588559 -0.09699654579 -0.0009632207988370492 -0.0003266246553950145
0.1248803139 -0.09699654579 -0.0009424751726169958 -0.0003369874825994688
0.1302017719 -0.09699654579 -0.0009220852302830619 -0.000347304631937263
0.1355232298 -0.09699654579 -0.0008969586949104487 -0.0003497572812888964
0.1408446878 -0.09699654579 -0.0008703007865516855 -0.0003462913903535553
0.1461661458 -0.09699654579 -0.0008434732961910846 -0.0003428080022081396
0.1514876038 -0.09699654579 -0.0008166616327891245 -0.0003392628013821794
0.1568090618 -0.09699654579 -0.0007901065661145861 -0.00033572744143675295
0.1621305197 -0.09699654579 -0.0007644395221537344 -0.0003323027358586931
0.1674519777 -0.09699654579 -0.000747132614147556 -0.0003181531931730464
0.1727734357 -0.09699654579 -0.000732154187838041 -0.0003001285184975214
0.1780948937 -0.09699654579 -0.0007160258950981322 -0.00028174819690884276
0.1834163517 -0.09699654579 -0.0007001985880534695 -0.0002634441829023475
0.1887378097 -0.09699654579 -0.0006860154215788342 -0.00024606774621529804
0.1940592676 -0.09699654579 -0.0006722182470567833 -0.00022871289474125106
0.1993807256 -0.09699654579 -0.0006704968545092531 -0.0002067605011791777
0.2047021836 -0.09699654579 -0.0006720115518910088 -0.00018377203767471357
0.2100236416 -0.09699654579 -0.0006734602543460572 -0.0001620978676428604
0.2153450996 -0.09699654579 -0.0006756881879897222 -0.00014089356797417177
0.2206665576 -0.09699654579 -0.0006776221804509868 -0.00011968195073356683
0.2259880155 -0.09699654579 -0.0006792437375646345 -9.830838732682459e-05
0.2313094735 -0.09699654579 -0.0006959698777595908 -7.968508630519114e-05
0.2366309315 -0.09699654579 -0.0007147609435031843 -6.237242831568177e-05
0.2419523895 -0.09699654579 -0.0007337176543164041 -4.5021225598218425e-05
0.2472738475 -0.09699654579 -0.0007525621082773765 -2.7694849345138088e-05
0.2525953054 -0.09699654579 -0.0007718725997362411 -1.133099735860123e-05
0.2579167783 -0.09699654579 -0.0007909291790704716 3.687111061537929e-06
0.2632382214 -0.09699654579 -0.0008360578412426969 8.156460778718125e-06
0.2685596943 -0.09699654579 -0.0008860819126619017 1.0636668499409659e-05
0.2738811374 -0.09699654579 -0.0009347674086206493 1.1688509918988526e-05
0.2792026103 -0.09699654579 -0.000980953435534199 1.078387076838631e-05
0.2845240533 -0.09699654579 -0.0010285797340741061 1.0268784905494375e-05
0.2898455262 -0.09699654579 -0.0010760924938562654 1.0667281939401108e-05
0.2951669693 -0.09699654579 -0.0011352872458077552 -3.782788798291672e-05
0.3004884422 -0.09699654579 -0.0011913373160582917 -9.073874229381136e-05
0.3058098853 -0.09699654579 -0.0012450052601525848 -0.0001432561644830373
0.3111313581 -0.09699654579 -0.0012985623625726167 -0.00019581522491346771
0.3164528012 -0.09699654579 -0.001350009837332493 -0.0002476155952816181
0.3217742741 -0.09699654579 -0.0013953966231343197 -0.00030052407476958515
0.3270957172 -0.09699654579 -0.0013999828350079793 -0.00039802669096685724
0.3324171901 -0.09699654579 -0.001404815938771141 -0.0004955318057506524
0.3377386332 -0.09699654579 -0.0014084675658521501 -0.0005904733233110724
0.343060106 -0.09699654579 -0.0014112884617288725 -0.0006831125339968194
0.3483815491 -0.09699654579 -0.0014145846177705311 -0.000776142034401435
0.353703022 -0.09699654579 -0.0013931482151700132 -0.0008675775675394527
0.3590244651 -0.09699654579 -0.001325218570656232 -0.0009533308319751972
0.364345938 -0.09699654579 -0.0012595248099849592 -0.0010346134018460408
0.369667381 -0.09699654579 -0.0011941705670699585 -0.0011159310240807974
0.3749888539 -0.09699654579 -0.0011262670981837027 -0.0011974960801736398
0.380310297 -0.09699654579 -0.001060090047994883 -0.0012756540865464503
0.3856317699 -0.09699654579 -0.0009630423317060866 -0.0013141391667143745
0.390953213 -0.09699654579 -0.0008555913250272703 -0.0013432822590533785
0.3962746859 -0.09699654579 -0.0007456693476355611 -0.0013735089979522688
0.4015961289 -0.09699654579 -0.0006407184235970614 -0.0014019471843523229
0.4069176018 -0.09699654579 -0.0005391752182530776 -0.001429461701779938
0.4122390449 -0.09699654579 -0.00043851521937915595 -0.0014292929461272772
0.4175605178 -0.09699654579 -0.0003393833523751281 -0.0013926449575520064
0.4228819609 -0.09699654579 -0.0002461060251335557 -0.0013588254419753388
0.4282034338 -0.09699654579 -0.00015455247125068005 -0.0013261861723258446
0.4335248768 -0.09699654579 -6.314638543643557e-05 -0.001293280353766133
0.4388463497 -0.09699654579 1.761880125579126e-05 -0.0012460122818777014
0.4441677928 -0.09699654579 6.189926089231285e-05 -0.0011763545952335655
0.4494892657 -0.09699654579 0.0001068070455998554 -0.001107393027698319
0.4548107088 -0.09699654579 0.0001521449195459829 -0.0010385202136264735
0.4601321816 -0.09699654579 0.00019700264184787863 -0.0009708927472082507
0.4654536247 -0.09699654579 0.00021865273789138678 -0.0009094752113835291
0.4707750976 -0.09699654579 0.00021015038169438515 -0.00084675343994419
0.4760965407 -0.09699654579 0.00020029729506380897 -0.0007806839043612865
0.4814180136 -0.09699654579 0.0001919428511543881 -0.0007178226505557665
0.4867394567 -0.09699654579 0.00018489165004580556 -0.0006588830887249239
0.4920609295 -0.09699654579 0.00014965234657990045 -0.0006211239489389232
0.4973823726 -0.09699654579 0.00010743971282232454 -0.000588942407428926
0.5027038455 -0.09699654579 6.837755691271003e-05 -0.0005585441216518239
0.5080252886 -0.09699654579 2.8162680063818538e-05 -0.0005275195220992608
0.5133467317 -0.09699654579 -1.7044922548598097e-05 -0.0005142276558136304
0.5186682343 -0.09699654579 -6.61442941475142e-05 -0.0005217014808072812
0.5239896774 -0.09699654579 -0.00011026562291339787 -0.0005284355189117817
0.5293111205 -0.09699654579 -0.00015635033507110184 -0.0005356112784511414
0.5346325636 -0.09699654579 -0.00019932019568560835 -0.0005574476429887736
0.5399540663 -0.09699654579 -0.00023180288607176303 -0.0005957092300901265
0.5452755094 -0.09699654579 -0.0002628984938229897 -0.0006322628438087351
0.5505969524 -0.09699654579 -0.0002951906160436572 -0.0006706304186207103
0.5559183955 -0.09699654579 -0.0003100421691127729 -0.00072354699107098
0.5612398982 -0.09699654579 -0.00031719518167777985 -0.0007764206990512738
0.5665613413 -0.09699654579 -0.0003241670459871812 -0.0008296618756577605
0.5718827844 -0.09699654579 -0.0003218074661981867 -0.0008897399646525873
0.5772042274 -0.09699654579 -0.0003036597010096413 -0.0009476415520076612
0.5825257301 -0.09699654579 -0.00028565571761804425 -0.0010056546688045863
0.5878471732 -0.09699654579 -0.0002584671858049892 -0.0010658414370865326
0.5931686163 -0.09699654579 -0.0002179837676488803 -0.0011187897593319927
0.5984900594 -0.09699654579 -0.00017561569154089438 -0.0011740325303939492
0.6038115621 -0.09699654579 -0.00012370633541218117 -0.0012194300563886746
0.6091330051 -0.09699654579 -6.210063138123922e-05 -0.0012607846131044895
0.6144544482 -0.09699654579 -1.6119730669082964e-06 -0.0012967239326686657
0.6197758913 -0.09699654579 6.879602233937512e-05 -0.0013190619987232606
0.625097394 -0.09699654579 0.00013875944502413594 -0.0013381652284067736
0.6304188371 -0.09699654579 0.00021104107290986697 -0.0013450165551586305
0.6357402802 -0.09699654579 0.0002859844439675392 -0.0013447579278472958
0.6410617828 -0.09699654579 0.0003550840797330964 -0.0013337718267499728
0.6463832259 -0.09699654579 0.00042270043545269926 -0.001311726983765587
0.651704669 -0.09699654579 0.0004870326380389047 -0.0012806635802492111
0.6570261121 -0.09699654579 0.0005396461582420004 -0.0012403320046454793
0.6623476148 -0.09699654579 0.0005862365727343238 -0.001194930887992838
0.6676690578 -0.09699654579 0.0006256594067176959 -0.0011445309746305823
0.6729905009 -0.09699654579 0.0006532285883659278 -0.0010874034802930749
0.678311944 -0.09699654579 0.0006719906465278908 -0.0010255089788692028
0.6836334467 -0.09699654579 0.0006798222278249607 -0.0009633683645172319
0.6889548898 -0.09699654579 0.0006738311900249175 -0.0009002175022301567
0.6942763329 -0.09699654579 0.0006526524151313371 -0.0008396026717062283
0.6995977759 -0.09699654579 0.0006193188914759372 -0.0007788649675854712
0.7049192786 -0.09699654579 0.0005741851640334566 -0.0007227477377201989
0.7102407217 -0.09699654579 0.0005154316754788505 -0.0006735415989212051
0.7155621648 -0.09699654579 0.00043997541194733605 -0.0006331175075743099
0.7208836079 -0.09699654579 0.00035035197058406016 -0.0006004132034472477
0.7262051105 -0.09699654579 0.00024761970616996243 -0.0005799186058195033
0.7315265536 -0.09699654579 0.00013386630800692976 -0.000572103275029683
0.7368479967 -0.09699654579 5.587348475268933e-06 -0.0005810321219719935
0.7421694398 -0.09699654579 -0.00013431695058095037 -0.0006122019968344549
0.7474909425 -0.09699654579 -0.0002857234149185986 -0.0006611992653934596
0.7528123856 -0.09699654579 -0.000446430238550083 -0.0007386326851716287
0.7581338286 -0.09699654579 -0.0006145278970320032 -0.0008424995057940067
-0.3008363545 -0.09367749095 -0.0007799511644473016 -0.0001547746399379595
-0.2955148816 -0.09367749095 -0.0007918051673017533 -0.00013978930644217432
-0.2901934385 -0.09367749095 -0.0008122251780371153 -0.0001262026171572096
-0.2848719656 -0.09367749095 -0.000792811864365539 -0.00012586892125918827
-0.2795505226 -0.09367749095 -0.0007765372762124029 -0.00013076828207676976