VARIABLES = X,Y,phix,phiy
ZONE I=200,J=200,F=POINT 
-0.3008363545 -0.1003156006 -0.0010391057462384656 0.0012653268964431398
-0.2955148816 -0.1003156006 -0.0010815980191063556 0.001284287537473751
-0.2901934385 -0.1003156006 -0.0011080858248544072 0.0012695041714305513
-0.2848719656 -0.1003156006 -0.0011353960417948492 0.0012519546026421007
-0.2795505226 -0.1003156006 -0.0011668512193953675 0.0012193472649480123
-0.2742290497 -0.1003156006 -0.0012100152210272332 0.0011691396782086431
-0.2689076066 -0.1003156006 -0.0012563739119449099 0.0011119207440600058
-0.2635861337 -0.1003156006 -0.0012864455188868744 0.001057331968354252
-0.2582646906 -0.1003156006 -0.0013065950205191337 0.0009931434428307108
-0.2529432178 -0.1003156006 -0.0013210900547671654 0.0009177203350691834
-0.2476217598 -0.1003156006 -0.0013348301804661006 0.0008365514239059084
-0.2423003018 -0.1003156006 -0.001324082813866213 0.0007804601575621661
-0.2369788438 -0.1003156006 -0.0012974147617884012 0.0007404484734987253
-0.2316573858 -0.1003156006 -0.0012672267541675747 0.0007010983433351286
-0.2263359278 -0.1003156006 -0.0012215379598086603 0.0006650307395029763
-0.2210144699 -0.1003156006 -0.0011754567829239592 0.000633356257680582
-0.2156930119 -0.1003156006 -0.0011261123921526537 0.0006000146914694037
-0.2103715539 -0.1003156006 -0.0010645932202153644 0.00056966859863893
-0.2050500959 -0.1003156006 -0.0010532705578032927 0.0005368274550959981
-0.1997286379 -0.1003156006 -0.0010430816436066519 0.0005010611587607511
-0.19440718 -0.1003156006 -0.001036552823182038 0.0004715582812606473
-0.189085722 -0.1003156006 -0.0009918810138449842 0.0004495210425822433
-0.183764264 -0.1003156006 -0.0009380246002619023 0.0004275913894144106
-0.178442806 -0.1003156006 -0.000887932144173993 0.0004052923835340909
-0.173121348 -0.1003156006 -0.0008478319202849202 0.0003843815306455545
-0.16779989 -0.1003156006 -0.0008142791685338023 0.0003637326344958194
-0.1624784321 -0.1003156006 -0.0007738965843414136 0.0003419418139690082
-0.1571569741 -0.1003156006 -0.0007358473382400556 0.0003228536864287764
-0.1518355161 -0.1003156006 -0.0006960786730684728 0.0003048086118333052
-0.1465140581 -0.1003156006 -0.0006544753847386854 0.0002871841247537172
-0.1411926001 -0.1003156006 -0.0006191323555850538 0.0002750437762793021
-0.1358711421 -0.1003156006 -0.0005930348368250416 0.00027358674938215586
-0.1305496842 -0.1003156006 -0.0005672513972968888 0.0002721036229832339
-0.1252282262 -0.1003156006 -0.0005418420474872929 0.0002722595942244941
-0.1199067682 -0.1003156006 -0.0005270732495017346 0.00027452714508738644
-0.1145853102 -0.1003156006 -0.000515293852452958 0.0002766125893611592
-0.1092638522 -0.1003156006 -0.0005049146267875343 0.0002782203884799933
-0.1039423943 -0.1003156006 -0.000493485333248839 0.00027989504869552917
-0.09862093627 -0.1003156006 -0.00047109490158125364 0.00026415449416704496
-0.09329947084 -0.1003156006 -0.0004481993791813643 0.0002465984065599887
-0.08797801286 -0.1003156006 -0.0004251854031935457 0.0002290250966449673
-0.08265655488 -0.1003156006 -0.0004017316345612214 0.0002112094282013205
-0.0773350969 -0.1003156006 -0.0003632628108601411 0.00019473441630431563
-0.07201363891 -0.1003156006 -0.000324513811463848 0.00017846200391924004
-0.06669218093 -0.1003156006 -0.0002860316680521973 0.00016218838450969038
-0.06137072667 -0.1003156006 -0.00024629210517003913 0.00014565507153314655
-0.05604926869 -0.1003156006 -0.00021429187197410672 0.00014225883174181798
-0.05072781071 -0.1003156006 -0.00018434182631080277 0.0001417062225739963
-0.045406349 -0.1003156006 -0.0001543176807453791 0.0001409312993529913
-0.04008489102 -0.1003156006 -0.00012407803392375396 0.0001407084599378116
-0.03476343304 -0.1003156006 -9.459300097127667e-05 0.00013954049184711057
-0.02944197692 -0.1003156006 -6.566549809154394e-05 0.0001358780120377864
-0.02412051894 -0.1003156006 -3.65750497234319e-05 0.00013189051126731826
-0.01879905909 -0.1003156006 -7.326885659423449e-06 0.00012736955215293652
-0.01347760204 -0.1003156006 2.1957000851735698e-05 0.00012341293378524955
-0.00815614406 -0.1003156006 6.0327406379984826e-05 0.00012125255288379645
-0.00283468538 -0.1003156006 0.00010663275261659457 0.00012050602625678058
0.002486772602 -0.1003156006 0.00015548605333223583 0.00011899335765102078
0.007808230817 -0.1003156006 0.00020443695656139122 0.00011750064492174654
0.0131296888 -0.1003156006 0.0002512691221301747 0.00011659508659904169
0.01845114678 -0.1003156006 0.0002969525680449435 0.00013160340577459114
0.02377260476 -0.1003156006 0.0003424759856546675 0.00015922184198077476
0.02909406275 -0.1003156006 0.00038914143942955277 0.00018818648873277259
0.03441552073 -0.1003156006 0.0004359181043444425 0.00021713798406982303
0.03973697871 -0.1003156006 0.0004815853706811093 0.0002449348758339745
0.04505843669 -0.1003156006 0.0005111507123731373 0.00027287554140149504
0.05037989467 -0.1003156006 0.0005183601592975 0.00030154554716503703
0.05570135266 -0.1003156006 0.0005243414540852219 0.00033166181006060206
0.06102281436 -0.1003156006 0.0005306771949866469 0.0003618499433883111
0.06634426862 -0.1003156006 0.0005373449665364235 0.0003909224897603886
0.0716657266 -0.1003156006 0.0005443272953963921 0.00041929027465555514
0.07698718458 -0.1003156006 0.0005485408030759606 0.0004197303775687745
0.08230864257 -0.1003156006 0.0005520189893760531 0.0004178472492185083
0.08763010055 -0.1003156006 0.0005555856592349468 0.00041539157384519704
0.09295155853 -0.1003156006 0.000559146424881147 0.00041355331142397964
0.09827301651 -0.1003156006 0.0005631081406225028 0.000412090517404462
0.1035944745 -0.1003156006 0.0005729622655130619 0.0004104874181605398
0.1089159325 -0.1003156006 0.0005986938589509995 0.0004089887560198047
0.1142373979 -0.1003156006 0.0006243642404096702 0.00040748715273624314
0.1195588559 -0.1003156006 0.0006482884260115894 0.0004064241511054514
0.1248803139 -0.1003156006 0.0006727555740515767 0.00040524800442197947
0.1302017719 -0.1003156006 0.0006975794275907878 0.00040390517656375296
0.1355232298 -0.1003156006 0.000717237505533045 0.0004136336712841992
0.1408446878 -0.1003156006 0.0007326346160242468 0.00043129188299933976
0.1461661458 -0.1003156006 0.000747160154686255 0.0004474733018376663
0.1514876038 -0.1003156006 0.0007622144155371347 0.00046366016024801886
0.1568090618 -0.1003156006 0.0007771960180839539 0.0004798565371758184
0.1621305197 -0.1003156006 0.0007926124424954794 0.0004961240587994308
0.1674519777 -0.1003156006 0.0007886115006342203 0.0004961516468283438
0.1727734357 -0.1003156006 0.0007769213091594019 0.0004897472343325458
0.1780948937 -0.1003156006 0.0007647583499499147 0.00048330161825410714
0.1834163517 -0.1003156006 0.0007528358378500566 0.0004768831058511058
0.1887378097 -0.1003156006 0.000742124899437025 0.00047002697555836897
0.1940592676 -0.1003156006 0.0007339024403539508 0.0004625538544530995
0.1993807256 -0.1003156006 0.0007466580109448032 0.0004287265289386322
0.2047021836 -0.1003156006 0.000766551242295633 0.00038600698838326384
0.2100236416 -0.1003156006 0.0007859255678662147 0.00034352118986419073
0.2153450996 -0.1003156006 0.0008075143746936822 0.0003054024977410411
0.2206665576 -0.1003156006 0.0008286347524470145 0.0002655622761627587
0.2259880155 -0.1003156006 0.0008489868777268127 0.00022560956589457533
0.2313094735 -0.1003156006 0.0009176149768064286 0.00019964987527515876
0.2366309315 -0.1003156006 0.0009967762455042656 0.00018166668671454605
0.2419523895 -0.1003156006 0.0010738754331154985 0.00016486121042291274
0.2472738475 -0.1003156006 0.0011511880966004764 0.00014791753399403404
0.2525953054 -0.1003156006 0.0012289054148709381 0.00013096299170705644
0.2579167783 -0.1003156006 0.0013037555292423784 0.00011588414905732728
0.2632382214 -0.1003156006 0.001378349159081129 0.00015462591088578236
0.2685596943 -0.1003156006 0.0014532498943604247 0.00020771350847917724
0.2738811374 -0.1003156006 0.001529868257500458 0.00026241641025203744
0.2792026103 -0.1003156006 0.0016052968337102326 0.0003157620499135429
0.2845240533 -0.1003156006 0.0016768312685491427 0.00036607563551984085
0.2898455262 -0.1003156006 0.0017486996918686581 0.0004164025630313741
0.2951669693 -0.1003156006 0.0017677277409222287 0.0004849105314059571
0.3004884422 -0.1003156006 0.0017780799312114928 0.000555608567155013
0.3058098853 -0.1003156006 0.0017904328222198677 0.0006217513015482669
0.3111313581 -0.1003156006 0.001802489411246241 0.0006879068492792423
0.3164528012 -0.1003156006 0.0018141885269508148 0.0007540566665203194
0.3217742741 -0.1003156006 0.001825511527399542 0.000819416743277349
0.3270957172 -0.1003156006 0.0018033841188917327 0.0008534821162723364
0.3324171901 -0.1003156006 0.0017818992800801502 0.0008876942503255517
0.3377386332 -0.1003156006 0.0017603588539755017 0.0009218872811917437
0.343060106 -0.1003156006 0.0017385848225608335 0.0009560292510999605
0.3483815491 -0.1003156006 0.0017210960868841397 0.0009882906319813906
0.353703022 -0.1003156006 0.0017015897295229348 0.0010124667473926441
0.3590244651 -0.1003156006 0.0016773434632757504 0.0010178088453515492
0.364345938 -0.1003156006 0.001653692123836893 0.001023149680421342
0.369667381 -0.1003156006 0.0016341176778910543 0.0010281040376603316
0.3749888539 -0.1003156006 0.0016141513723501948 0.001033109636121924
0.380310297 -0.1003156006 0.0015930404601261822 0.0010383239791026534
0.3856317699 -0.1003156006 0.0015831413457560218 0.0010144208386608654
0.390953213 -0.1003156006 0.001581218330140215 0.0009858033349025492
0.3962746859 -0.1003156006 0.0015792247635960136 0.0009575825731662388
0.4015961289 -0.1003156006 0.0015764009941246927 0.0009294811079078641
0.4069176018 -0.1003156006 0.001573747003482752 0.0009016514433051082
0.4122390449 -0.1003156006 0.0015900347141185828 0.0008770053214528122
0.4175605178 -0.1003156006 0.0016320984093339042 0.0008498354145288078
0.4228819609 -0.1003156006 0.0016763379577636602 0.000820578550209653
0.4282034338 -0.1003156006 0.0017197799715403862 0.000791918789690805
0.4335248768 -0.1003156006 0.001759572412801121 0.0007678060977364681
0.4388463497 -0.1003156006 0.001804290715893422 0.0007536716120677805
0.4441677928 -0.1003156006 0.0018627287336745132 0.0007675717994361271
0.4494892657 -0.1003156006 0.0019201660149910627 0.00078117033979693
0.4548107088 -0.1003156006 0.0019732899091747195 0.000793617435285494
0.4601321816 -0.1003156006 0.0020284970430903783 0.0008068845733767167
0.4654536247 -0.1003156006 0.002073999333816248 0.0008313719721409862
0.4707750976 -0.1003156006 0.0021013115254359606 0.0008713558666807017
0.4760965407 -0.1003156006 0.002126874308516703 0.0009076434246385301
0.4814180136 -0.1003156006 0.0021525531695505183 0.0009439780534894431
0.4867394567 -0.1003156006 0.002178281956368104 0.0009804915408712955
0.4920609295 -0.1003156006 0.00217548936251142 0.0010137440120765115
0.4973823726 -0.1003156006 0.002164252876582464 0.0010449515059863116
0.5027038455 -0.1003156006 0.002152564496892491 0.0010761155160743344
0.5080252886 -0.1003156006 0.0021406319025980176 0.0011071576453921216
0.5133467317 -0.1003156006 0.0021235171453147608 0.0011234568293240707
0.5186682343 -0.1003156006 0.002092170420265008 0.0011277502752870916
0.5239896774 -0.1003156006 0.002060128024554007 0.0011323220071089587
0.5293111205 -0.1003156006 0.0020298669502047725 0.0011363693412162477
0.5346325636 -0.1003156006 0.00200309631940177 0.0011282838966847088
0.5399540663 -0.1003156006 0.0019738272308242395 0.0011051469931438137
0.5452755094 -0.1003156006 0.0019417144707341834 0.001081589982899372
0.5505969524 -0.1003156006 0.0019138393452420427 0.001058867454080887
0.5559183955 -0.1003156006 0.0018931603727412446 0.001022561844549384
0.5612398982 -0.1003156006 0.0018712356976833034 0.000979073554818643
0.5665613413 -0.1003156006 0.0018500093584141693 0.0009360395750801469
0.5718827844 -0.1003156006 0.0018340440717178382 0.0008894012162783405
0.5772042274 -0.1003156006 0.0018210135246272382 0.0008321064168711656
0.5825257301 -0.1003156006 0.0018076278789441078 0.0007744692526132155
0.5878471732 -0.1003156006 0.00179947759850149 0.000714392303107409
0.5931686163 -0.1003156006 0.0017942356741633002 0.0006471094524882628
0.5984900594 -0.1003156006 0.001788840980021768 0.0005800767798828135
0.6038115621 -0.1003156006 0.0017886591711951084 0.0005066773761532668
0.6091330051 -0.1003156006 0.0017904723672795767 0.0004326681648806488
0.6144544482 -0.1003156006 0.0017932933056143648 0.00035286353156755687
0.6197758913 -0.1003156006 0.0018010406582580065 0.00027101266284058597
0.625097394 -0.1003156006 0.0018090874021584955 0.00018522627667255084
0.6304188371 -0.1003156006 0.0018184212056962037 9.357337866932163e-05
0.6357402802 -0.1003156006 0.0018324089456280542 8.885066222400541e-07
0.6410617828 -0.1003156006 0.001846859663289976 -9.835416611448369e-05
0.6463832259 -0.1003156006 0.001862394128654129 -0.00020038834973919737
0.651704669 -0.1003156006 0.0018778683446712583 -0.0003064255431939446
0.6570261121 -0.1003156006 0.0018983897006076885 -0.00041908943267229907
0.6623476148 -0.1003156006 0.001917698021652465 -0.0005395334957792864
0.6676690578 -0.1003156006 0.001937558334076671 -0.0006648915631204017
0.6729905009 -0.1003156006 0.001962413226721197 -0.0008029500595630696
0.678311944 -0.1003156006 0.0019917092562099564 -0.0009468342078462951
0.6836334467 -0.1003156006 0.0020227521249033984 -0.001099755586647256
0.6889548898 -0.1003156006 0.0020563260489257626 -0.0012670297781545588
0.6942763329 -0.1003156006 0.002098019689624815 -0.0014468214128671815
0.6995977759 -0.1003156006 0.0021449791306947514 -0.0016376034902968858
0.7049192786 -0.1003156006 0.002198683470995834 -0.0018393153806557485
0.7102407217 -0.1003156006 0.0022617205900226194 -0.002059783584247058
0.7155621648 -0.1003156006 0.002338987865609124 -0.0022939537530361283
0.7208836079 -0.1003156006 0.002431204851040158 -0.0025418544727184595
0.7262051105 -0.1003156006 0.002536423448204407 -0.002805531168425411
0.7315265536 -0.1003156006 0.002662760572269585 -0.0030853005896823065
0.7368479967 -0.1003156006 0.002814710979572082 -0.003386183836537401
0.7421694398 -0.1003156006 0.002988804051385492 -0.0037017542278357093
0.7474909425 -0.1003156006 0.003185469658244037 -0.004016116526702434
0.7528123856 -0.1003156006 0.0034220688229485274 -0.004353446926687589
0.7581338286 -0.1003156006 0.003688840271280441 -0.004701635132551054
-0.3008363545 -0.09699654579 -0.0010519098571401464 0.0012752833737517592
-0.2955148816 -0.09699654579 -0.0010952772226920904 0.0012970418131050933
-0.2901934385 -0.09699654579 -0.0011321866863385946 0.0013045163813165126
-0.2848719656 -0.09699654579 -0.0011607751068994272 0.001281325382025243
-0.2795505226 -0.09699654579 -0.0011890754057853783 0.001246423355521983
-0.2742290497 -0.09699654579 -0.0012263039598660245 0.0011992114163305201
-0.2689076066 -0.09699654579 -0.0012788456601508763 0.0011346694803125417
-0.2635861337 -0.09699654579 -0.0013249749426558672 0.0010705827956390779
-0.2582646906 -0.09699654579 -0.001348666659131328 0.001009702197378841
-0.2529432178 -0.09699654579 -0.0013643201067813273 0.0009338284224411389
-0.2476217598 -0.09699654579 -0.0013762970805568312 0.0008420110934446779
-0.2423003018 -0.09699654579 -0.0013733406650818804 0.0007619856554162172
-0.2369788438 -0.09699654579 -0.0013530455975820095 0.0007219627144554563
-0.2316573858 -0.09699654579 -0.0013139159083259948 0.0006829218112978193
-0.2263359278 -0.09699654579 -0.0012706294638358843 0.0006386735568903975
-0.2210144699 -0.09699654579 -0.0012219139528320485 0.0006054864916796956
-0.2156930119 -0.09699654579 -0.0011613923702935502 0.0005762750122441755
-0.2103715539 -0.09699654579 -0.0010936655337419976 0.0005437576468868226
-0.2050500959 -0.09699654579 -0.00106650306100468 0.0005139205515023442
-0.1997286379 -0.09699654579 -0.0010602575415388786 0.0004846549968190946
-0.19440718 -0.09699654579 -0.0010582764557447689 0.0004604127545230833
-0.189085722 -0.09699654579 -0.001024156383560072 0.0004380771050632729
-0.183764264 -0.09699654579 -0.000977379740496077 0.0004139342898749481
-0.178442806 -0.09699654579 -0.0009249768004257131 0.0003872434490176776
-0.173121348 -0.09699654579 -0.0008833120963313593 0.00036515036718150884
-0.16779989 -0.09699654579 -0.0008403981872143352 0.0003433502900809382
-0.1624784321 -0.09699654579 -0.0008001867616722304 0.0003204212685089748
-0.1571569741 -0.09699654579 -0.0007600850961331602 0.0003046423853826529
-0.1518355161 -0.09699654579 -0.0007200226729630483 0.00028758075652329486
-0.1465140581 -0.09699654579 -0.0006762691521400848 0.0002709587649387095
-0.1411926001 -0.09699654579 -0.0006366296415376585 0.00025904384914850914
-0.1358711421 -0.09699654579 -0.0006111942983991909 0.0002595548614034821
-0.1305496842 -0.09699654579 -0.0005856263473082156 0.0002614031424370488
-0.1252282262 -0.09699654579 -0.0005619680227037247 0.000263101340206435
-0.1199067682 -0.09699654579 -0.0005504255637947967 0.00026606712443581315
-0.1145853102 -0.09699654579 -0.0005423359945697744 0.0002677528403204488
-0.1092638522 -0.09699654579 -0.0005342130748031209 0.00026921013968741764
-0.1039423943 -0.09699654579 -0.0005268863069211869 0.00027016904411978
-0.09862093627 -0.09699654579 -0.0005044559094410982 0.00025179347343696606
-0.09329947084 -0.09699654579 -0.0004812477109752081 0.00023231205434688708
-0.08797801286 -0.09699654579 -0.00045756569497749753 0.00021174629491889265
-0.08265655488 -0.09699654579 -0.0004336254899311621 0.00019244627973901706
-0.0773350969 -0.09699654579 -0.000393626815823331 0.00017571181673158137
-0.07201363891 -0.09699654579 -0.00035267951096004874 0.00015917560550260393
-0.06669218093 -0.09699654579 -0.00031184320887463256 0.0001425469503166559
-0.06137072667 -0.09699654579 -0.00026977894239051554 0.00012548982371143264
-0.05604926869 -0.09699654579 -0.00023560481794308703 0.00012243805752480019
-0.05072781071 -0.09699654579 -0.00020436225818691405 0.00012245406889020705
-0.045406349 -0.09699654579 -0.00017263823135356008 0.00012245790163699892
-0.04008489102 -0.09699654579 -0.0001410913252223714 0.0001228634960919825
-0.03476343304 -0.09699654579 -0.00010979230843243254 0.00012166347476558715
-0.02944197692 -0.09699654579 -7.854118721405049e-05 0.00011554367965670426
-0.02412051894 -0.09699654579 -4.7554027883457986e-05 0.00010970238015730243
-0.01879905909 -0.09699654579 -1.642756951456269e-05 0.0001036059424694058
-0.01347760204 -0.09699654579 1.5148552719151096e-05 9.69814656938213e-05
-0.00815614406 -0.09699654579 5.755991926508063e-05 9.293989552098712e-05
-0.00283468538 -0.09699654579 0.00010880528887878318 9.091985178834048e-05
0.002486772602 -0.09699654579 0.00016167974534643507 8.868133523916447e-05
0.007808230817 -0.09699654579 0.0002139939123735295 8.627494298264728e-05
0.0131296888 -0.09699654579 0.0002663524008225882 8.413517558095655e-05
0.01845114678 -0.09699654579 0.00031639791921652473 0.0001008971989281635
0.02377260476 -0.09699654579 0.000365665676824686 0.00013173578416992378
0.02909406275 -0.09699654579 0.0004163389355385431 0.00016384087609409089
0.03441552073 -0.09699654579 0.0004673175875195823 0.00019612353642594772
0.03973697871 -0.09699654579 0.0005167043451467389 0.000227088686488008
0.04505843669 -0.09699654579 0.0005477403082561827 0.0002586304650354008
0.05037989467 -0.09699654579 0.0005521179015328752 0.00029079304576878115
0.05570135266 -0.09699654579 0.0005562780104250729 0.00032340140446269805
0.06102281436 -0.09699654579 0.000559953343260081 0.0003568399332431946
0.06634426862 -0.09699654579 0.0005645319235896807 0.0003886666932114505
0.0716657266 -0.09699654579 0.0005692384292378092 0.0004204884333796872
0.07698718458 -0.09699654579 0.0005707450909613684 0.00041826080060631274
0.08230864257 -0.09699654579 0.0005720364640267293 0.0004139041612345418
0.08763010055 -0.09699654579 0.0005740194979209426 0.00041013506754601815
0.09295155853 -0.09699654579 0.0005755414136206719 0.00040636095994746655
0.09827301651 -0.09699654579 0.0005773784671642379 0.0004024460885486893
0.1035944745 -0.09699654579 0.0005870794902845213 0.00039892903580856164
0.1089159325 -0.09699654579 0.0006149432140821196 0.0003966242089338862
0.1142373979 -0.09699654579 0.0006418309343701197 0.00039472998288103933
0.1195588559 -0.09699654579 0.000667851973165598 0.0003930109781746514
0.1248803139 -0.09699654579 0.0006938101478706559 0.00039128164310219985
0.1302017719 -0.09699654579 0.0007201783714550696 0.0003894658971574728
0.1355232298 -0.09699654579 0.0007402392604761658 0.0004014665443547241
0.1408446878 -0.09699654579 0.0007547173131681317 0.0004211316977074402
0.1461661458 -0.09699654579 0.0007692777870033838 0.0004407032779616931
0.1514876038 -0.09699654579 0.0007853418012960481 0.0004603398472655041
0.1568090618 -0.09699654579 0.000801296056575836 0.00047995580767805
0.1621305197 -0.09699654579 0.0008164471723890842 0.0004982705761899789
0.1674519777 -0.09699654579 0.0008094684031592369 0.0004977630107369414
0.1727734357 -0.09699654579 0.0007934790229085719 0.000490677611316778
0.1780948937 -0.09699654579 0.0007764564118125446 0.0004831354812897257
0.1834163517 -0.09699654579 0.000760190120440913 0.00047577381342895947
0.1887378097 -0.09699654579 0.0007464215503474117 0.00046911197276549937
0.1940592676 -0.09699654579 0.0007328288329224196 0.00046245686860011
0.1993807256 -0.09699654579 0.0007430139264847697 0.00042267000695425677
0.2047021836 -0.09699654579 0.0007602594296779671 0.00037362846068544984
0.2100236416 -0.09699654579 0.0007787022726236415 0.00032952348176380205
0.2153450996 -0.09699654579 0.0007975411173263832 0.0002856787444419385
0.2206665576 -0.09699654579 0.0008162609815012153 0.00024184598705427195
0.2259880155 -0.09699654579 0.0008349358450114837 0.0001979980839248292
0.2313094735 -0.09699654579 0.0009076565370935743 0.0001703931909586162
0.2366309315 -0.09699654579 0.0009933992095234002 0.00014694114875153788
0.2419523895 -0.09699654579 0.001079769100616114 0.00012353027605387773
0.2472738475 -0.09699654579 0.0011660796786264606 0.00010009273737065724
0.2525953054 -0.09699654579 0.0012482774392038563 7.947626429593262e-05
0.2579167783 -0.09699654579 0.0013283819754302463 6.077076939665861e-05
0.2632382214 -0.09699654579 0.001409965094403371 0.00010664760254932066
0.2685596943 -0.09699654579 0.0014925791392416815 0.00016655737858628188
0.2738811374 -0.09699654579 0.0015716054854000112 0.0002240924552227039
0.2792026103 -0.09699654579 0.0016473981350694877 0.00027929330713644053
0.2845240533 -0.09699654579 0.001723767465414914 0.0003347889372872349
0.2898455262 -0.09699654579 0.0018016134930578167 0.00039163890640586636
0.2951669693 -0.09699654579 0.0018164750370807327 0.00046627706058359984
0.3004884422 -0.09699654579 0.0018248089823244158 0.0005400471904077511
0.3058098853 -0.09699654579 0.001834225792033941 0.0006138774857425923
0.3111313581 -0.09699654579 0.0018440388118500784 0.0006876595934780473
0.3164528012 -0.09699654579 0.001854541860654485 0.0007591954302535439
0.3217742741 -0.09699654579 0.0018631887069290101 0.0008258519720188008
0.3270957172 -0.09699654579 0.0018359769226744813 0.000861704820095966
0.3324171901 -0.09699654579 0.001808662178032275 0.0008975784274721587
0.3377386332 -0.09699654579 0.0017828305233601922 0.0009326498405580073
0.343060106 -0.09699654579 0.001758979376218906 0.0009669537327586679
0.3483815491 -0.09699654579 0.0017344392740467473 0.0010015333127360855
0.353703022 -0.09699654579 0.0017068815925583938 0.001026364162996882
0.3590244651 -0.09699654579 0.0016765305035946984 0.001031371475306749
0.364345938 -0.09699654579 0.0016490205321658602 0.0010362662394618133
0.369667381 -0.09699654579 0.001622412700601897 0.001041388591742197
0.3749888539 -0.09699654579 0.0015959109976360672 0.00104678698665947
0.380310297 -0.09699654579 0.001572354429198301 0.0010519669086777597
0.3856317699 -0.09699654579 0.001563017789293446 0.0010264985596691435
0.390953213 -0.09699654579 0.0015562838353415248 0.000991845323730054
0.3962746859 -0.09699654579 0.0015483209536583332 0.0009551841031329443
0.4015961289 -0.09699654579 0.0015430362904598574 0.0009222530148401709
0.4069176018 -0.09699654579 0.001538968028182331 0.0008913408665683445
0.4122390449 -0.09699654579 0.0015573957988190559 0.0008588253555195518
0.4175605178 -0.09699654579 0.0016064794721608049 0.0008239889747083252
0.4228819609 -0.09699654579 0.001652288838756534 0.0007941207186993076
0.4282034338 -0.09699654579 0.001697015151445358 0.0007653977382918269
0.4335248768 -0.09699654579 0.0017420793757227278 0.0007365040457687334
0.4388463497 -0.09699654579 0.001795102836932896 0.0007195132632310311
0.4441677928 -0.09699654579 0.0018588606393097399 0.0007349157366218589
0.4494892657 -0.09699654579 0.0019218870850240559 0.0007498447576758668
0.4548107088 -0.09699654579 0.0019844556385911344 0.0007646087659069487
0.4601321816 -0.09699654579 0.0020458498369601555 0.0007790311074751538
0.4654536247 -0.09699654579 0.0020901542937980765 0.0008042563120986378
0.4707750976 -0.09699654579 0.002119221620247283 0.0008473588605568009
0.4760965407 -0.09699654579 0.002148799155514637 0.0008939172407434452
0.4814180136 -0.09699654579 0.002177260909940284 0.0009371418412934839
0.4867394567 -0.09699654579 0.0022044471178482503 0.000977325911024192
0.4920609295 -0.09699654579 0.0021984905682070005 0.0010147235998590911
0.4973823726 -0.09699654579 0.0021834903446292233 0.00105129364792013
0.5027038455 -0.09699654579 0.0021711474227893795 0.0010840636386256518
0.5080252886 -0.09699654579 0.0021569570523533124 0.001118727543586043
0.5133467317 -0.09699654579 0.002132292650391258 0.0011403933361231536
0.5186682343 -0.09699654579 0.0020960801264342127 0.0011458593787506673
0.5239896774 -0.09699654579 0.0020639189694019676 0.0011500175152936028
0.5293111205 -0.09699654579 0.002030330998270094 0.0011547377050814107
0.5346325636 -0.09699654579 0.0019943415556210493 0.0011471549014716294
0.5399540663 -0.09699654579 0.0019617551269956145 0.0011228680058980897
0.5452755094 -0.09699654579 0.001930108894304696 0.0010991335833383292
0.5505969524 -0.09699654579 0.0018973377321237256 0.0010748610766089977
0.5559183955 -0.09699654579 0.0018703568031240843 0.0010352633045089697
0.5612398982 -0.09699654579 0.001847715920339856 0.000991794615846484
0.5665613413 -0.09699654579 0.0018250192020684 0.0009482166805101752
0.5718827844 -0.09699654579 0.0018039276689662625 0.0008975773533804847
0.5772042274 -0.09699654579 0.0017896157123500223 0.00083970880538823
0.5825257301 -0.09699654579 0.0017754757053258536 0.0007818600097176271
0.5878471732 -0.09699654579 0.0017623645428307695 0.0007187593792568177
0.5931686163 -0.09699654579 0.0017559665760917573 0.0006508389610505327
0.5984900594 -0.09699654579 0.0017494149340351324 0.0005814860614993436
0.6038115621 -0.09699654579 0.0017463967093311347 0.0005073056852865682
0.6091330051 -0.09699654579 0.001746636059503816 0.0004297296974911152
0.6144544482 -0.09699654579 0.001747870283147031 0.00035070180056320777
0.6197758913 -0.09699654579 0.0017537047823251277 0.00026593821066830123
0.625097394 -0.09699654579 0.0017607012984182401 0.00018035043744308538
0.6304188371 -0.09699654579 0.0017688611797076488 8.686914570112498e-05
0.6357402802 -0.09699654579 0.001776461041296692 -7.709746564276201e-06
0.6410617828 -0.09699654579 0.0017891556304574106 -0.00010444212795804375
0.6463832259 -0.09699654579 0.0018007928116911278 -0.00020854821797040122
0.651704669 -0.09699654579 0.0018139329396900357 -0.0003153693545850222
0.6570261121 -0.09699654579 0.0018290125451623884 -0.00043114351830884906
0.6623476148 -0.09699654579 0.0018454583727432203 -0.0005512767913550322
0.6676690578 -0.09699654579 0.001861914511250244 -0.0006807664066031076
0.6729905009 -0.09699654579 0.0018815562049936917 -0.0008176753734289888
0.678311944 -0.09699654579 0.0019012342871632512 -0.0009630941540882634
0.6836334467 -0.09699654579 0.0019241125993129707 -0.0011174270297718955
0.6889548898 -0.09699654579 0.0019531113193388507 -0.001284835383945836
0.6942763329 -0.09699654579 0.0019847149730095417 -0.001467485707032713
0.6995977759 -0.09699654579 0.0020198843846801376 -0.0016640589191972324
0.7049192786 -0.09699654579 0.0020655812610117226 -0.0018718274707672402
0.7102407217 -0.09699654579 0.002121190308565637 -0.0020960498700038303
0.7155621648 -0.09699654579 0.002190453407351136 -0.002339520378909924
0.7208836079 -0.09699654579 0.0022695544585838914 -0.0026022034897060188
0.7262051105 -0.09699654579 0.0023664125156221344 -0.002880538138639464
0.7315265536 -0.09699654579 0.002480895791938423 -0.0031698451584451794
0.7368479967 -0.09699654579 0.0026172748431598316 -0.00348257859746607
0.7421694398 -0.09699654579 0.0027842680354084764 -0.0038109516683897454
0.7474909425 -0.09699654579 0.0029744025889785 -0.0041553140120036275
0.7528123856 -0.09699654579 0.0032010811179792476 -0.004511391748731773
0.7581338286 -0.09699654579 0.0034657972115919693 -0.004875168955070551
-0.3008363545 -0.09367749095 -0.0010599152492256558 0.0012822542774547736
-0.2955148816 -0.09367749095 -0.0010955025463414024 0.0013039236782377778
-0.2901934385 -0.09367749095 -0.0011514950185087303 0.0013271248016796387
-0.2848719656 -0.09367749095 -0.0011773544855644008 0.0013135707480570853
-0.2795505226 -0.09367749095 -0.0012084330640042792 0.0012780221718369786
-0.2742290497 -0.09367749095 -0.0012412979480869593 0.0012247785820589485
-0.2689076066 -0.09367749095 -0.0012865067300531397 0.0011660114136371473
-0.2635861337 -0.09367749095 -0.0013586012254067094 0.0010941831253289765
-0.2582646906 -0.09367749095 -0.0013907513500896755 0.0010255837238576202
-0.2529432178 -0.09367749095 -0.0014117557343715531 0.0009535125781314827
-0.2476217598 -0.09367749095 -0.0014286766894169654 0.0008619127319008041
-0.2423003018 -0.09367749095 -0.0014424618185306173 0.0007471029312381073
-0.2369788438 -0.09367749095 -0.0014143428391072215 0.0007027453446188643
-0.2316573858 -0.09367749095 -0.001380840100031778 0.0006538493925666781