VARIABLES = X,Y,phix,phiy
ZONE I=200,J=200,F=POINT 
-0.3008363545 -0.1003156006 -0.0004894920622060487 0.0009152287773611353
-0.2955148816 -0.1003156006 -0.0004694313538390264 0.0009186407712504649
-0.2901934385 -0.1003156006 -0.0004954177436191589 0.0009275140951918037
-0.2848719656 -0.1003156006 -0.0005264118332487181 0.0009422575359731539
-0.2795505226 -0.1003156006 -0.0005782289970797736 0.0009605113197616626
-0.2742290497 -0.1003156006 -0.0006487738128776975 0.0009729190516715737
-0.2689076066 -0.1003156006 -0.0007181170390311564 0.0010009391286342482
-0.2635861337 -0.1003156006 -0.0007182892033744446 0.0009952836651259682
-0.2582646906 -0.1003156006 -0.0007338696466018777 0.0009726067085081834
-0.2529432178 -0.1003156006 -0.0007581303863560633 0.0009423583345843068
-0.2476217598 -0.1003156006 -0.0007982174875897949 0.0009147027545163501
-0.2423003018 -0.1003156006 -0.0008331695632538208 0.000881741434076855
-0.2369788438 -0.1003156006 -0.0008670861994089969 0.0008297843484079514
-0.2316573858 -0.1003156006 -0.000906873764681469 0.0007617722849998686
-0.2263359278 -0.1003156006 -0.0009426757898021695 0.0006960583233161984
-0.2210144699 -0.1003156006 -0.0009759687073087524 0.0006376129262446663
-0.2156930119 -0.1003156006 -0.0010132844751027648 0.0005753716338609468
-0.2103715539 -0.1003156006 -0.0010677343752913033 0.0005164188337384107
-0.2050500959 -0.1003156006 -0.0010033393891681927 0.000453621813333675
-0.1997286379 -0.1003156006 -0.0009328728973940543 0.0003651984400265432
-0.19440718 -0.1003156006 -0.0008626755603298431 0.00028094106443474833
-0.189085722 -0.1003156006 -0.0008231680272466198 0.00024681379156059937
-0.183764264 -0.1003156006 -0.000784080703095254 0.00021369450859634598
-0.178442806 -0.1003156006 -0.0007401189717584451 0.00017695179867169885
-0.173121348 -0.1003156006 -0.0006954808712166246 0.00015754081199867694
-0.16779989 -0.1003156006 -0.0006505110152461063 0.00013694345422015492
-0.1624784321 -0.1003156006 -0.0006142272694600896 0.00012482323781844913
-0.1571569741 -0.1003156006 -0.0005726065044466327 0.0001157824685453148
-0.1518355161 -0.1003156006 -0.0005356080579947171 0.00011145752304072288
-0.1465140581 -0.1003156006 -0.0004994022401687503 0.0001097593476657155
-0.1411926001 -0.1003156006 -0.00046739960260624053 0.00011137147776152812
-0.1358711421 -0.1003156006 -0.00043872657797430705 0.00011110869097938026
-0.1305496842 -0.1003156006 -0.0004099686997471555 0.00011087941178207713
-0.1252282262 -0.1003156006 -0.00038498265869029607 0.00010986895038667429
-0.1199067682 -0.1003156006 -0.00035371583416032897 0.00010007549564463366
-0.1145853102 -0.1003156006 -0.0003205396124180109 8.61227894553029e-05
-0.1092638522 -0.1003156006 -0.00028673583165978557 7.099604164965112e-05
-0.1039423943 -0.1003156006 -0.00025375087664646025 5.8537194595328016e-05
-0.09862093627 -0.1003156006 -0.00022947351401984362 5.402477873831066e-05
-0.09329947084 -0.1003156006 -0.000205179750749962 5.05094777094808e-05
-0.08797801286 -0.1003156006 -0.00018075162394336108 4.698904569221012e-05
-0.08265655488 -0.1003156006 -0.000155356700097313 4.3931015511456936e-05
-0.0773350969 -0.1003156006 -0.00012606590008150257 3.994078430189984e-05
-0.07201363891 -0.1003156006 -9.64977691329151e-05 3.623118043793526e-05
-0.06669218093 -0.1003156006 -6.698274994928123e-05 3.252578458651193e-05
-0.06137072667 -0.1003156006 -3.6520488278938654e-05 2.7949924281689586e-05
-0.05604926869 -0.1003156006 -8.288341285943399e-06 2.3709013119219652e-05
-0.05072781071 -0.1003156006 2.0641589845804335e-05 1.8611340152842872e-05
-0.045406349 -0.1003156006 4.8649973568583324e-05 1.3365323590944711e-05
-0.04008489102 -0.1003156006 7.721281828171895e-05 8.748820888013783e-06
-0.03476343304 -0.1003156006 0.00010467584462123735 3.2190062279749784e-06
-0.02944197692 -0.1003156006 0.0001317653909144951 -6.360377803166298e-06
-0.02412051894 -0.1003156006 0.0001585588545184389 -1.5872832310973736e-05
-0.01879905909 -0.1003156006 0.00018575731916596386 -2.5434281259990952e-05
-0.01347760204 -0.1003156006 0.00021243258809372997 -3.4930317155920287e-05
-0.00815614406 -0.1003156006 0.00023824732262278507 -4.067851416151045e-05
-0.00283468538 -0.1003156006 0.0002634153112570614 -4.417940714732533e-05
0.002486772602 -0.1003156006 0.00028920076380172975 -4.758742160156466e-05
0.007808230817 -0.1003156006 0.00031505386576772594 -5.0968773494284875e-05
0.0131296888 -0.1003156006 0.0003403589177802435 -5.447791184302659e-05
0.01845114678 -0.1003156006 0.00036471851654652207 -5.7390791015514684e-05
0.02377260476 -0.1003156006 0.000388631566846278 -6.01985651122367e-05
0.02909406275 -0.1003156006 0.0004128807609551603 -6.305845996487174e-05
0.03441552073 -0.1003156006 0.00043682056447524696 -6.591061361309803e-05
0.03973697871 -0.1003156006 0.00046104751016811784 -6.87292777583642e-05
0.04505843669 -0.1003156006 0.00048216741939751203 -7.154895084809256e-05
0.05037989467 -0.1003156006 0.000504297901856274 -7.597311320818198e-05
0.05570135266 -0.1003156006 0.0005261310222180489 -8.038759400456117e-05
0.06102281436 -0.1003156006 0.0005477230975732676 -8.508469535074794e-05
0.06634426862 -0.1003156006 0.0005694546242958101 -8.955585879383843e-05
0.0716657266 -0.1003156006 0.0005915341401024342 -9.394959907147638e-05
0.07698718458 -0.1003156006 0.0006200467089939861 -8.868398834018938e-05
0.08230864257 -0.1003156006 0.0006489521042637982 -8.295261116698796e-05
0.08763010055 -0.1003156006 0.0006785093052854344 -7.693231747705852e-05
0.09295155853 -0.1003156006 0.0007082291591235975 -7.104017579998425e-05
0.09827301651 -0.1003156006 0.0007373347521485699 -6.532587178117732e-05
0.1035944745 -0.1003156006 0.0007616221344588024 -5.443044613316188e-05
0.1089159325 -0.1003156006 0.0007783882500486006 -3.3531533667486356e-05
0.1142373979 -0.1003156006 0.0007953944167841955 -1.261873041465302e-05
0.1195588559 -0.1003156006 0.0008122647754956561 7.142525561451663e-06
0.1248803139 -0.1003156006 0.0008292099710202468 2.747093277052885e-05
0.1302017719 -0.1003156006 0.0008460563420102115 4.78143835827153e-05
0.1355232298 -0.1003156006 0.0008476545550915281 6.897925610709502e-05
0.1408446878 -0.1003156006 0.0008382298037931579 9.035756912960189e-05
0.1461661458 -0.1003156006 0.0008313682769886255 0.00011042791494994504
0.1514876038 -0.1003156006 0.0008238661389336685 0.0001304826592769352
0.1568090618 -0.1003156006 0.0008160488894794387 0.0001505618965467574
0.1621305197 -0.1003156006 0.0008089325264114796 0.0001706555610666729
0.1674519777 -0.1003156006 0.0007907872139336213 0.0001806075313162345
0.1727734357 -0.1003156006 0.0007672397499736765 0.0001864821902124204
0.1780948937 -0.1003156006 0.0007447148474755314 0.00019235635166605
0.1834163517 -0.1003156006 0.0007215634047923522 0.00019822694015172665
0.1887378097 -0.1003156006 0.0006993404145307437 0.00020384531973122486
0.1940592676 -0.1003156006 0.0006779761413445282 0.0002089829120427374
0.1993807256 -0.1003156006 0.0006560483528027912 0.0002024915253561964
0.2047021836 -0.1003156006 0.0006340038741823187 0.00019200182237141957
0.2100236416 -0.1003156006 0.0006122883083368364 0.0001816113348729058
0.2153450996 -0.1003156006 0.0005919743201248122 0.00017161874279234798
0.2206665576 -0.1003156006 0.0005708771029021858 0.00016124065576159305
0.2259880155 -0.1003156006 0.0005499960003306773 0.0001509275677972296
0.2313094735 -0.1003156006 0.0005289013164441051 0.000133668252646902
0.2366309315 -0.1003156006 0.0005088757669012979 0.00011467825256537911
0.2419523895 -0.1003156006 0.000489973355535743 9.557655434022494e-05
0.2472738475 -0.1003156006 0.0004714987966018278 7.647840029573191e-05
0.2525953054 -0.1003156006 0.0004515024190806612 5.732312129586397e-05
0.2579167783 -0.1003156006 0.00043203442657480166 3.853283299020217e-05
0.2632382214 -0.1003156006 0.000414143035225337 1.4561460529876522e-05
0.2685596943 -0.1003156006 0.0003969735652871939 -1.0682257126781854e-05
0.2738811374 -0.1003156006 0.0003793477067793897 -3.618164883031316e-05
0.2792026103 -0.1003156006 0.0003615894424748744 -6.150578131921084e-05
0.2845240533 -0.1003156006 0.0003449447336726979 -8.637424239672046e-05
0.2898455262 -0.1003156006 0.00032857731218914545 -0.0001112040704813192
0.2951669693 -0.1003156006 0.0003185591548540116 -0.00014541522356377
0.3004884422 -0.1003156006 0.00031075413329083676 -0.00018086168197470608
0.3058098853 -0.1003156006 0.00030428476808093933 -0.00021498071542324707
0.3111313581 -0.1003156006 0.00029743849738806777 -0.00024905754160726334
0.3164528012 -0.1003156006 0.00029048192110581476 -0.000283169422111699
0.3217742741 -0.1003156006 0.00028347852397962676 -0.0003171040879341438
0.3270957172 -0.1003156006 0.0002971731867263566 -0.00034920526971733245
0.3324171901 -0.1003156006 0.00031005947923013535 -0.0003813409191060766
0.3377386332 -0.1003156006 0.0003230569858491881 -0.00041342579241959737
0.343060106 -0.1003156006 0.0003363031989219721 -0.0004455579180073019
0.3483815491 -0.1003156006 0.0003496068541871226 -0.00047581262730552045
0.353703022 -0.1003156006 0.00036649435203226643 -0.0004999833791562992
0.3590244651 -0.1003156006 0.00039388240525745126 -0.0005110840549437374
0.364345938 -0.1003156006 0.0004206289983306917 -0.000522175811661
0.369667381 -0.1003156006 0.0004460276811122916 -0.0005325612987057834
0.3749888539 -0.1003156006 0.00047132636716187983 -0.000543041333312269
0.380310297 -0.1003156006 0.0004976926809716606 -0.0005538020939180765
0.3856317699 -0.1003156006 0.0005172042042251694 -0.000541603042969485
0.390953213 -0.1003156006 0.0005335411152258566 -0.0005242640492881242
0.3962746859 -0.1003156006 0.0005488903463956219 -0.0005075435027401073
0.4015961289 -0.1003156006 0.000565103821531625 -0.0004910145622583535
0.4069176018 -0.1003156006 0.0005831628149173029 -0.0004743423101050648
0.4122390449 -0.1003156006 0.0005867455162312658 -0.00045409404180603904
0.4175605178 -0.1003156006 0.0005742046663597967 -0.00042395170235085884
0.4228819609 -0.1003156006 0.0005615360906027476 -0.00039243589776301704
0.4282034338 -0.1003156006 0.000548605257430877 -0.0003611009228644275
0.4335248768 -0.1003156006 0.0005361419203245214 -0.0003341520679605306
0.4388463497 -0.1003156006 0.000514480854939307 -0.0003099270176148673
0.4441677928 -0.1003156006 0.000468823099114642 -0.00029246762484572966
0.4494892657 -0.1003156006 0.00042355001441581806 -0.00027569003612031153
0.4548107088 -0.1003156006 0.0003812310046138738 -0.0002613509029545326
0.4601321816 -0.1003156006 0.00033722205714462543 -0.0002454910165111075
0.4654536247 -0.1003156006 0.0002874907619390156 -0.00023892594586692623
0.4707750976 -0.1003156006 0.00022972554619680674 -0.0002476283206023166
0.4760965407 -0.1003156006 0.00017495704817508016 -0.0002567523959394228
0.4814180136 -0.1003156006 0.00012027975243599484 -0.00026587580011498826
0.4867394567 -0.1003156006 6.512339229466732e-05 -0.00027499007160071025
0.4920609295 -0.1003156006 1.1785063768022197e-05 -0.0002993960845160391
0.4973823726 -0.1003156006 -4.029957932280358e-05 -0.000327764599794749
0.5027038455 -0.1003156006 -9.164221383957376e-05 -0.00035611048392926263
0.5080252886 -0.1003156006 -0.0001428007441854813 -0.00038443259733985616
0.5133467317 -0.1003156006 -0.00018838941477543827 -0.0004167893730283485
0.5186682343 -0.1003156006 -0.00023127009638563 -0.00045612221619265107
0.5239896774 -0.1003156006 -0.00027426271094919047 -0.0004954552707613712
0.5293111205 -0.1003156006 -0.00031684636113505884 -0.0005344773539699629
0.5346325636 -0.1003156006 -0.0003554713312065444 -0.0005743397289453982
0.5399540663 -0.1003156006 -0.00039120698299313183 -0.0006174801824358308
0.5452755094 -0.1003156006 -0.0004275834435963194 -0.0006608308980972997
0.5505969524 -0.1003156006 -0.00046282595344579523 -0.0007035687866356392
0.5559183955 -0.1003156006 -0.000495784319985208 -0.0007467673136208883
0.5612398982 -0.1003156006 -0.0005286734591735318 -0.0007913516242655857
0.5665613413 -0.1003156006 -0.000562227360844216 -0.0008358159870516315
0.5718827844 -0.1003156006 -0.0005940335644953905 -0.0008794997107514517
0.5772042274 -0.1003156006 -0.0006261424946256101 -0.0009236434265803849
0.5825257301 -0.1003156006 -0.000657735222665347 -0.0009677728190276808
0.5878471732 -0.1003156006 -0.000689000384771186 -0.0010115690399763084
0.5931686163 -0.1003156006 -0.0007201773859542332 -0.0010550743167609142
0.5984900594 -0.1003156006 -0.0007513786067257664 -0.0010982196878719702
0.6038115621 -0.1003156006 -0.0007847066456600688 -0.0011398708235312975
0.6091330051 -0.1003156006 -0.0008182161270129498 -0.0011812364202762893
0.6144544482 -0.1003156006 -0.0008530214996389917 -0.0012211333458509127
0.6197758913 -0.1003156006 -0.0008892614676035776 -0.0012598578026317762
0.625097394 -0.1003156006 -0.0009271661092540622 -0.0012980728294865842
0.6304188371 -0.1003156006 -0.0009689010661767673 -0.0013339135606820476
0.6357402802 -0.1003156006 -0.0010137476689278686 -0.001370380361287473
0.6410617828 -0.1003156006 -0.0010614651297542617 -0.0014049438550881256
0.6463832259 -0.1003156006 -0.0011132510840340748 -0.001438470817859928
0.651704669 -0.1003156006 -0.0011681702317881033 -0.0014710599681701743
0.6570261121 -0.1003156006 -0.0012302730501797105 -0.001504916429659429
0.6623476148 -0.1003156006 -0.0012994756394877841 -0.0015385354619578365
0.6676690578 -0.1003156006 -0.0013744925241748896 -0.0015724419998952139
0.6729905009 -0.1003156006 -0.0014577409642746156 -0.0016093889287487726
0.678311944 -0.1003156006 -0.0015473389448764185 -0.0016493687556920764
0.6836334467 -0.1003156006 -0.0016442532057379525 -0.0016906966991155463
0.6889548898 -0.1003156006 -0.0017502734127055866 -0.001734427360786985
0.6942763329 -0.1003156006 -0.001865807889825085 -0.0017854181796231763
0.6995977759 -0.1003156006 -0.001989191415530273 -0.0018406238014309268
0.7049192786 -0.1003156006 -0.002121516039032653 -0.0018992937371482695
0.7102407217 -0.1003156006 -0.0022636236095882104 -0.0019651586661283624
0.7155621648 -0.1003156006 -0.002416429828025035 -0.0020399342239212615
0.7208836079 -0.1003156006 -0.0025787733735996954 -0.0021250786089549983
0.7262051105 -0.1003156006 -0.0027510124675639456 -0.0022191215470881015
0.7315265536 -0.1003156006 -0.002936986779729898 -0.00232358075878155
0.7368479967 -0.1003156006 -0.003137613288193264 -0.0024446800187044276
0.7421694398 -0.1003156006 -0.0033512305169167683 -0.0025781888868625976
0.7474909425 -0.1003156006 -0.0035671738612146025 -0.0027288852240161285
0.7528123856 -0.1003156006 -0.0038068473460699205 -0.002900485157088651
0.7581338286 -0.1003156006 -0.004059675133072114 -0.0030911824096402046
-0.3008363545 -0.09699654579 -0.0004336928739732094 0.000911347053303595
-0.2955148816 -0.09699654579 -0.00041452029549817403 0.0009100385480345038
-0.2901934385 -0.09699654579 -0.00039920647690077076 0.0009236651055109902
-0.2848719656 -0.09699654579 -0.0004370759029524244 0.0009404497505515261
-0.2795505226 -0.09699654579 -0.00048366137189740987 0.0009565281483543847
-0.2742290497 -0.09699654579 -0.0005445534612617646 0.0009800763804647373
-0.2689076066 -0.09699654579 -0.0006208851781213527 0.0010112309244053733
-0.2635861337 -0.09699654579 -0.000678514292645398 0.0010321669719313086
-0.2582646906 -0.09699654579 -0.0007007167546853074 0.0010183759501311768
-0.2529432178 -0.09699654579 -0.000736699044266959 0.0009924822764552776
-0.2476217598 -0.09699654579 -0.000791906931903668 0.0009608091283307941
-0.2423003018 -0.09699654579 -0.0008313558338321881 0.000915098241179595
-0.2369788438 -0.09699654579 -0.0008675731304229243 0.0008473106323134621
-0.2316573858 -0.09699654579 -0.0009097876610052474 0.0007779005909501685
-0.2263359278 -0.09699654579 -0.0009355552870687364 0.0006996276595567471
-0.2210144699 -0.09699654579 -0.0009593113202430917 0.0006361589686873049
-0.2156930119 -0.09699654579 -0.0010134690911698158 0.0005792780598988039
-0.2103715539 -0.09699654579 -0.001077404922748243 0.0004977988774334197
-0.2050500959 -0.09699654579 -0.001034747452504813 0.00041192822462370016
-0.1997286379 -0.09699654579 -0.0009645254822389553 0.00032797284902894816
-0.19440718 -0.09699654579 -0.0008895528511644754 0.00024192687677909112
-0.189085722 -0.09699654579 -0.0008266121233414306 0.00018682410997440638
-0.183764264 -0.09699654579 -0.0007798875915128993 0.00014490367077899205
-0.178442806 -0.09699654579 -0.000724754411370234 0.00010510255343052169
-0.173121348 -0.09699654579 -0.0006810555793027983 8.580362352830796e-05
-0.16779989 -0.09699654579 -0.0006441513667458462 8.081690350917453e-05
-0.1624784321 -0.09699654579 -0.000596543749371312 8.509464485650333e-05
-0.1571569741 -0.09699654579 -0.0005537926552740285 8.903317768318955e-05
-0.1518355161 -0.09699654579 -0.0005142976428756316 9.184755999617117e-05
-0.1465140581 -0.09699654579 -0.000482730283089414 9.621099822272784e-05
-0.1411926001 -0.09699654579 -0.000452688281496753 0.00010084009448699771
-0.1358711421 -0.09699654579 -0.00042843638452847696 9.972418858294198e-05
-0.1305496842 -0.09699654579 -0.0004048681748625948 9.845304622263587e-05
-0.1252282262 -0.09699654579 -0.0003750337009793144 9.678630950091737e-05
-0.1199067682 -0.09699654579 -0.0003383230523210738 8.484171561520159e-05
-0.1145853102 -0.09699654579 -0.0002951977189183574 6.926115221261804e-05
-0.1092638522 -0.09699654579 -0.00025411498747747875 5.380456820928023e-05
-0.1039423943 -0.09699654579 -0.00021631159359956903 4.1111765135740044e-05
-0.09862093627 -0.09699654579 -0.00018813031098025435 3.78440236498819e-05
-0.09329947084 -0.09699654579 -0.00016085469659216404 3.4434413212535446e-05
-0.08797801286 -0.09699654579 -0.000134735143864516 3.09664251257599e-05
-0.08265655488 -0.09699654579 -0.00010747857241754894 2.8262385956567942e-05
-0.0773350969 -0.09699654579 -7.685278793441056e-05 2.3374279884636257e-05
-0.07201363891 -0.09699654579 -4.530706617075542e-05 1.8278190224328846e-05
-0.06669218093 -0.09699654579 -1.4020066065650292e-05 1.3261176766309122e-05
-0.06137072667 -0.09699654579 1.8630156771927704e-05 7.89620372354099e-06
-0.05604926869 -0.09699654579 4.728785445004757e-05 3.7867365400137898e-06
-0.05072781071 -0.09699654579 7.639165114165327e-05 -4.37669385040892e-07
-0.045406349 -0.09699654579 0.0001054147365758546 -4.67045856616907e-06
-0.04008489102 -0.09699654579 0.00013343995769038517 -8.857205501044899e-06
-0.03476343304 -0.09699654579 0.00015979607597767315 -1.3930087225825779e-05
-0.02944197692 -0.09699654579 0.00018573787955241219 -2.3279386911424776e-05
-0.02412051894 -0.09699654579 0.00021179002715062987 -3.276788589032174e-05
-0.01879905909 -0.09699654579 0.00023788411546464932 -4.214847515274703e-05
-0.01347760204 -0.09699654579 0.00026346066581750814 -5.145345808986746e-05
-0.00815614406 -0.09699654579 0.0002884367851199058 -5.70956265292981e-05
-0.00283468538 -0.09699654579 0.0003135251271129669 -6.053043336266092e-05
0.002486772602 -0.09699654579 0.0003384817173903872 -6.397582807055949e-05
0.007808230817 -0.09699654579 0.00036368873798395577 -6.751933672084195e-05
0.0131296888 -0.09699654579 0.00038887849303764267 -7.095184546586924e-05
0.01845114678 -0.09699654579 0.0004126945579940976 -7.366182164250933e-05
0.02377260476 -0.09699654579 0.00043665270787339547 -7.623771838450155e-05
0.02909406275 -0.09699654579 0.0004603359192436185 -7.846959698203082e-05
0.03441552073 -0.09699654579 0.00048388205408644115 -8.071361577039775e-05
0.03973697871 -0.09699654579 0.000507860902515151 -8.318356027290582e-05
0.04505843669 -0.09699654579 0.0005288697907080924 -8.60412100780133e-05
0.05037989467 -0.09699654579 0.000550455165917251 -9.10072764263183e-05
0.05570135266 -0.09699654579 0.0005714417723427665 -9.580910991130894e-05
0.06102281436 -0.09699654579 0.0005926227214985933 -0.00010089005859424136
0.06634426862 -0.09699654579 0.0006142126110960266 -0.00010584420028592524
0.0716657266 -0.09699654579 0.0006355339321834314 -0.00011079167459916474
0.07698718458 -0.09699654579 0.0006655110045181935 -0.00010511942642572638
0.08230864257 -0.09699654579 0.0006962589451614334 -9.912150299094905e-05
0.08763010055 -0.09699654579 0.0007269008122216042 -9.295603083553796e-05
0.09295155853 -0.09699654579 0.0007575671039690162 -8.683250952598777e-05
0.09827301651 -0.09699654579 0.0007880056240507257 -8.084410355665585e-05
0.1035944745 -0.09699654579 0.0008134295934013238 -6.868046823943759e-05
0.1089159325 -0.09699654579 0.000831483606064885 -4.558412417458489e-05
0.1142373979 -0.09699654579 0.0008495054716533434 -2.29656050321725e-05
0.1195588559 -0.09699654579 0.0008672027143966653 -1.0785193620505328e-06
0.1248803139 -0.09699654579 0.0008855152293888056 2.082742725662086e-05
0.1302017719 -0.09699654579 0.0009031984262159844 4.347874990277229e-05
0.1355232298 -0.09699654579 0.0009034831934755883 6.717235852195361e-05
0.1408446878 -0.09699654579 0.0008944794378895636 9.007847106263297e-05
0.1461661458 -0.09699654579 0.0008853111564740975 0.00011280967624689737
0.1514876038 -0.09699654579 0.0008746399364501303 0.00013549553392531888
0.1568090618 -0.09699654579 0.0008642111548501465 0.00015816591168693012
0.1621305197 -0.09699654579 0.000854643009918187 0.00018009594602431196
0.1674519777 -0.09699654579 0.0008345698211699158 0.00019021559067219131
0.1727734357 -0.09699654579 0.0008106053270367304 0.0001965107808138475
0.1780948937 -0.09699654579 0.0007858661685277448 0.0002028481846706865
0.1834163517 -0.09699654579 0.0007613361720988563 0.00020913065661615503
0.1887378097 -0.09699654579 0.000739081426192195 0.00021529966229494974
0.1940592676 -0.09699654579 0.0007168190895051704 0.00022146623972991896
0.1993807256 -0.09699654579 0.0006945009580509899 0.0002148406011994388
0.2047021836 -0.09699654579 0.0006717519738503776 0.00020450148827085826
0.2100236416 -0.09699654579 0.0006518709218521827 0.0001944717138200148
0.2153450996 -0.09699654579 0.0006319298730165372 0.00018429325919472258
0.2206665576 -0.09699654579 0.0006113262322694827 0.00017410823876880903
0.2259880155 -0.09699654579 0.0005915977446331372 0.0001640545657937054
0.2313094735 -0.09699654579 0.0005710085627030198 0.00014684291663555153
0.2366309315 -0.09699654579 0.0005494321996207459 0.00012734686331629535
0.2419523895 -0.09699654579 0.0005283476717624346 0.00010785272386329741
0.2472738475 -0.09699654579 0.000506880289136915 8.833561332522084e-05
0.2525953054 -0.09699654579 0.00048637387958488714 6.921920159558626e-05
0.2579167783 -0.09699654579 0.00046698411958994763 4.999091698484324e-05
0.2632382214 -0.09699654579 0.0004477974610986786 2.5395306012620832e-05
0.2685596943 -0.09699654579 0.00043009394641483955 -2.0694205138490977e-07
0.2738811374 -0.09699654579 0.00041264853349208585 -2.577888261361346e-05
0.2792026103 -0.09699654579 0.0003968903616619593 -5.1477023991699566e-05
0.2845240533 -0.09699654579 0.0003804113509597206 -7.710946877581364e-05
0.2898455262 -0.09699654579 0.00036364776214238646 -0.00010273633208892054
0.2951669693 -0.09699654579 0.0003546259336524625 -0.0001391156727971463
0.3004884422 -0.09699654579 0.00034834640204684116 -0.0001757563983530898
0.3058098853 -0.09699654579 0.00033936452513643026 -0.00021211112504540547
0.3111313581 -0.09699654579 0.00033055874596732936 -0.0002485450170358219
0.3164528012 -0.09699654579 0.00032240973272929473 -0.00028426997592979154
0.3217742741 -0.09699654579 0.00031598828944028886 -0.0003189558390979311
0.3270957172 -0.09699654579 0.0003279044928292538 -0.0003535764474472296
0.3324171901 -0.09699654579 0.0003401244270193083 -0.0003881794249051763
0.3377386332 -0.09699654579 0.0003522142659346688 -0.0004219607422139448
0.343060106 -0.09699654579 0.0003640056691588874 -0.0004550053177370676
0.3483815491 -0.09699654579 0.0003759681046523595 -0.00048816199460485695
0.353703022 -0.09699654579 0.00039433614363581566 -0.0005139121883532943
0.3590244651 -0.09699654579 0.00042353128208150897 -0.0005253944398629166
0.364345938 -0.09699654579 0.00045094773433140465 -0.0005364574943447295
0.369667381 -0.09699654579 0.00047837033787827423 -0.0005475710408021691
0.3749888539 -0.09699654579 0.0005070019234422811 -0.0005589091456335922
0.380310297 -0.09699654579 0.0005344388215372534 -0.0005697629366810713
0.3856317699 -0.09699654579 0.0005539509351847898 -0.0005565523140411763
0.390953213 -0.09699654579 0.0005730116927139772 -0.000536194226036296
0.3962746859 -0.09699654579 0.0005930345588477011 -0.0005155698297817507
0.4015961289 -0.09699654579 0.0006112124741834352 -0.0004960236616894178
0.4069176018 -0.09699654579 0.0006281217078511139 -0.0004780545000513088
0.4122390449 -0.09699654579 0.0006312981463915039 -0.000452138302934502
0.4175605178 -0.09699654579 0.0006157868192720494 -0.00041543337854730536
0.4228819609 -0.09699654579 0.0006006921664672274 -0.0003825933665879507
0.4282034338 -0.09699654579 0.0005863408174603832 -0.0003512483548455248
0.4335248768 -0.09699654579 0.0005709305222780719 -0.0003194657861826932
0.4388463497 -0.09699654579 0.0005447251640020532 -0.00028898670318294853
0.4441677928 -0.09699654579 0.0004946379313444307 -0.0002698704919619285
0.4494892657 -0.09699654579 0.0004461840449817959 -0.0002505784235316159
0.4548107088 -0.09699654579 0.0003984935562366006 -0.0002310673796224323
0.4601321816 -0.09699654579 0.00035142176642544046 -0.00021225919399923767
0.4654536247 -0.09699654579 0.00030120019096177835 -0.0002062529907566745
0.4707750976 -0.09699654579 0.00024126182493723318 -0.0002145565364289806
0.4760965407 -0.09699654579 0.00017885816517982444 -0.000222318699018136
0.4814180136 -0.09699654579 0.00011904278375896168 -0.00023058071921120394
0.4867394567 -0.09699654579 6.161254646496252e-05 -0.00023916163118193544
0.4920609295 -0.09699654579 5.826904963556677e-06 -0.0002646934290300337
0.4973823726 -0.09699654579 -4.947726231359352e-05 -0.0002946415168672534
0.5027038455 -0.09699654579 -0.0001028067932327456 -0.0003240115210737024
0.5080252886 -0.09699654579 -0.000156888028569234 -0.00035351338493628046
0.5133467317 -0.09699654579 -0.00020637886926260255 -0.0003882408748232404
0.5186682343 -0.09699654579 -0.0002511238459945763 -0.0004289651021849559
0.5239896774 -0.09699654579 -0.0002940447047595989 -0.00046834164466552614
0.5293111205 -0.09699654579 -0.0003376392303588567 -0.000508375852924762
0.5346325636 -0.09699654579 -0.0003783623706450394 -0.0005505304591237529
0.5399540663 -0.09699654579 -0.00041539443861302017 -0.0005943340831525776
0.5452755094 -0.09699654579 -0.0004513634298209714 -0.000637650347750948
0.5505969524 -0.09699654579 -0.000487479412759374 -0.0006815019296921524
0.5559183955 -0.09699654579 -0.0005216869306243143 -0.0007261327630899038
0.5612398982 -0.09699654579 -0.0005552005330918761 -0.000770636447700617
0.5665613413 -0.09699654579 -0.0005882391013108581 -0.0008152366860955774
0.5718827844 -0.09699654579 -0.0006206782312450232 -0.0008598970060212225
0.5772042274 -0.09699654579 -0.0006522550454374401 -0.0009041082157339232
0.5825257301 -0.09699654579 -0.0006839545578556052 -0.0009483125016925192
0.5878471732 -0.09699654579 -0.0007156646442700067 -0.0009920983309930958
0.5931686163 -0.09699654579 -0.0007473278689705493 -0.0010351379274872324
0.5984900594 -0.09699654579 -0.0007783986532598985 -0.0010781628687467446
0.6038115621 -0.09699654579 -0.0008113482546136151 -0.001119779863617803
0.6091330051 -0.09699654579 -0.0008447869606275081 -0.001160052132965063
0.6144544482 -0.09699654579 -0.0008796791412897126 -0.0012002438810206734
0.6197758913 -0.09699654579 -0.0009152637762101431 -0.0012369577830469603
0.625097394 -0.09699654579 -0.0009521195889616956 -0.0012735558734416309
0.6304188371 -0.09699654579 -0.0009931516113620446 -0.0013086035894569817
0.6357402802 -0.09699654579 -0.0010359560329251717 -0.0013411101200166045
0.6410617828 -0.09699654579 -0.0010828976136722807 -0.0013737234938517833
0.6463832259 -0.09699654579 -0.0011348972678528679 -0.0014042446372208334
0.651704669 -0.09699654579 -0.0011909952698716938 -0.0014334086975525335
0.6570261121 -0.09699654579 -0.001255225410662858 -0.0014634339698464357
0.6623476148 -0.09699654579 -0.0013244475855393846 -0.0014939038656152002
0.6676690578 -0.09699654579 -0.0014003988081889645 -0.0015249087590779014
0.6729905009 -0.09699654579 -0.0014835760486808767 -0.0015572296875921447
0.678311944 -0.09699654579 -0.001574929455314434 -0.001589795411435134
0.6836334467 -0.09699654579 -0.0016725255870303649 -0.0016252698473114393
0.6889548898 -0.09699654579 -0.0017806297964544399 -0.001665155781281361
0.6942763329 -0.09699654579 -0.0018986716588614097 -0.0017106519880710676
0.6995977759 -0.09699654579 -0.0020259682581788667 -0.0017583563936565526
0.7049192786 -0.09699654579 -0.0021609498736925277 -0.0018117494904377766
0.7102407217 -0.09699654579 -0.002307545985144922 -0.0018726715769493306
0.7155621648 -0.09699654579 -0.0024659163101269903 -0.0019418322375866427
0.7208836079 -0.09699654579 -0.002635872112009797 -0.0020181622358831294
0.7262051105 -0.09699654579 -0.0028169362586069535 -0.002105008329437318
0.7315265536 -0.09699654579 -0.0030086157396887222 -0.0022018364143340605
0.7368479967 -0.09699654579 -0.003215981838901216 -0.0023121583818868936
0.7421694398 -0.09699654579 -0.003436273390987126 -0.002439622065765575
0.7474909425 -0.09699654579 -0.0036696466562740975 -0.0025807734688326226
0.7528123856 -0.09699654579 -0.003917429399476038 -0.0027456616916513
0.7581338286 -0.09699654579 -0.004182684284172577 -0.0029303679379958287
-0.3008363545 -0.09367749095 -0.00037796912817460323 0.000902679127922396
-0.2955148816 -0.09367749095 -0.0003550856108864794 0.0009063347697493338
-0.2901934385 -0.09367749095 -0.000325488773123035 0.0009198221128329465
-0.2848719656 -0.09367749095 -0.0003335753429531376 0.0009368767961434895
-0.2795505226 -0.09367749095 -0.0003830888584951006 0.0009566984693528005
-0.2742290497 -0.09367749095 -0.00044165326973560985 0.0009880083761982688
-0.2689076066 -0.09367749095 -0.0005141828284325683 0.001024262148101672
-0.2635861337 -0.09367749095 -0.0006315142125888981 0.001068682579007896
-0.2582646906 -0.09367749095 -0.0006760622051927678 0.0010669553823084578