VARIABLES = X,Y,phix,phiy
ZONE I=200,J=200,F=POINT 
-0.3008363545 -0.1003156006 -0.0005840266062671069 0.0013334137402784786
-0.2955148816 -0.1003156006 -0.0005686803856987023 0.0012916958469631331
-0.2901934385 -0.1003156006 -0.0005165152882931988 0.0012421140649810421
-0.2848719656 -0.1003156006 -0.0004563623952278104 0.0011916650189538645
-0.2795505226 -0.1003156006 -0.0003764748461254127 0.0011349461087506614
-0.2742290497 -0.1003156006 -0.000274018802031056 0.0010733455418178296
-0.2689076066 -0.1003156006 -0.0001591310857953217 0.001017677070085178
-0.2635861337 -0.1003156006 -0.00011693039041250088 0.0009916557606214945
-0.2582646906 -0.1003156006 -0.00010177761580454181 0.000967116598683476
-0.2529432178 -0.1003156006 -8.286831389800796e-05 0.0009422150757847467
-0.2476217598 -0.1003156006 -5.6598899469034345e-05 0.0009262784154231015
-0.2423003018 -0.1003156006 -2.51348047860702e-05 0.0009062252177347145
-0.2369788438 -0.1003156006 -4.8617418656180055e-06 0.0008832705521760879
-0.2316573858 -0.1003156006 2.0605604600597536e-05 0.0008715278313357131
-0.2263359278 -0.1003156006 6.287855895978524e-05 0.0008504707390968413
-0.2210144699 -0.1003156006 9.720621441528092e-05 0.0008161201454372733
-0.2156930119 -0.1003156006 0.00013153907558954725 0.0007772255089327542
-0.2103715539 -0.1003156006 0.00018575940658757247 0.000718614390746111
-0.2050500959 -0.1003156006 0.00019963485161938652 0.0006903664215619283
-0.1997286379 -0.1003156006 0.00020016605050693462 0.0006540241900755348
-0.19440718 -0.1003156006 0.00020658291703674363 0.0006225846559964616
-0.189085722 -0.1003156006 0.000251942706175503 0.0005906198600522667
-0.183764264 -0.1003156006 0.0002950149777645805 0.0005670728544955973
-0.178442806 -0.1003156006 0.00033634760098402093 0.000540396350222842
-0.173121348 -0.1003156006 0.0003840118245560737 0.0005113660115574014
-0.16779989 -0.1003156006 0.00043614604966314924 0.00047964289464227813
-0.1624784321 -0.1003156006 0.00047842901235935095 0.00046404357903757497
-0.1571569741 -0.1003156006 0.0005135956624245835 0.000451131210345284
-0.1518355161 -0.1003156006 0.0005462500128241403 0.0004355250453147332
-0.1465140581 -0.1003156006 0.0005806058384269274 0.00041904494537056003
-0.1411926001 -0.1003156006 0.000615515682824769 0.0004042412839935788
-0.1358711421 -0.1003156006 0.0006576638512863383 0.000386648396048264
-0.1305496842 -0.1003156006 0.0006995436475263772 0.0003690397287575143
-0.1252282262 -0.1003156006 0.0007421933335736002 0.00035191291508283916
-0.1199067682 -0.1003156006 0.0007781430624956235 0.0003426409000871819
-0.1145853102 -0.1003156006 0.0008110761218450999 0.000334349316299626
-0.1092638522 -0.1003156006 0.0008441667558479896 0.0003274938530879551
-0.1039423943 -0.1003156006 0.0008777139681879216 0.00032136581527687324
-0.09862093627 -0.1003156006 0.0009079398447161751 0.0003098869319531883
-0.09329947084 -0.1003156006 0.0009392484522346784 0.0002980945163534723
-0.08797801286 -0.1003156006 0.000970298493237576 0.0002862814715896916
-0.08265655488 -0.1003156006 0.0010001430891227253 0.00027538660540936416
-0.0773350969 -0.1003156006 0.001028428634449506 0.0002712662855869294
-0.07201363891 -0.1003156006 0.0010564004931032762 0.000267277203491417
-0.06669218093 -0.1003156006 0.0010849526682090254 0.000263304899901246
-0.06137072667 -0.1003156006 0.001113025952889259 0.00025964564379175783
-0.05604926869 -0.1003156006 0.0011406584133448695 0.00025889898718719774
-0.05072781071 -0.1003156006 0.001167953583139875 0.0002580823188457408
-0.045406349 -0.1003156006 0.0011944972477563038 0.0002575898324100449
-0.04008489102 -0.1003156006 0.001223194154963849 0.00025647553248365584
-0.03476343304 -0.1003156006 0.0012535272221585493 0.00025414930345797854
-0.02944197692 -0.1003156006 0.00128901538858975 0.0002472125956121958
-0.02412051894 -0.1003156006 0.0013247810944411282 0.00024028777049219657
-0.01879905909 -0.1003156006 0.0013607270470608885 0.0002332370474279109
-0.01347760204 -0.1003156006 0.001396605442208482 0.0002263234595253193
-0.00815614406 -0.1003156006 0.0014303779813610099 0.00022581061468444127
-0.00283468538 -0.1003156006 0.0014618914402549138 0.00022963238349684877
0.002486772602 -0.1003156006 0.001494936731250927 0.00023398088642324511
0.007808230817 -0.1003156006 0.0015275853269314436 0.00023840820071911482
0.0131296888 -0.1003156006 0.0015592433683428014 0.00024230012030561037
0.01845114678 -0.1003156006 0.0015867707735209092 0.00025038446561606803
0.02377260476 -0.1003156006 0.0016108576171541974 0.00026137156851980506
0.02909406275 -0.1003156006 0.0016354034722893987 0.00027287914216776683
0.03441552073 -0.1003156006 0.0016594821927715666 0.0002843959369495673
0.03973697871 -0.1003156006 0.0016834466832088765 0.0002954578809486029
0.04505843669 -0.1003156006 0.0017023981396376401 0.0003033414084681092
0.05037989467 -0.1003156006 0.0017184217628868597 0.0003031718004477945
0.05570135266 -0.1003156006 0.0017349651054310827 0.00030252783637049757
0.06102281436 -0.1003156006 0.0017512025588988242 0.00030151877915605047
0.06634426862 -0.1003156006 0.0017672092441751715 0.00030103318835805157
0.0716657266 -0.1003156006 0.0017836681670234512 0.0003009579448013287
0.07698718458 -0.1003156006 0.0018200497484185956 0.0003105265289135976
0.08230864257 -0.1003156006 0.0018578097558975552 0.00032040417957541757
0.08763010055 -0.1003156006 0.0018973068413872373 0.00033032643899799543
0.09295155853 -0.1003156006 0.0019354178923279392 0.000340283394189746
0.09827301651 -0.1003156006 0.001972919074454086 0.0003502393337190021
0.1035944745 -0.1003156006 0.002004646860036506 0.00037001337676585374
0.1089159325 -0.1003156006 0.0020296912479840887 0.00040850861812386906
0.1142373979 -0.1003156006 0.0020543900338407424 0.000446973815009847
0.1195588559 -0.1003156006 0.002076602803202925 0.00048358579238316855
0.1248803139 -0.1003156006 0.002100168165098366 0.000521147150478602
0.1302017719 -0.1003156006 0.002124256194386006 0.0005587241057676093
0.1355232298 -0.1003156006 0.002121757896558028 0.0005963885211855185
0.1408446878 -0.1003156006 0.0021022757122450696 0.0006334944865784054
0.1461661458 -0.1003156006 0.002084017025522582 0.0006683351455984202
0.1514876038 -0.1003156006 0.0020656789997110406 0.0007032089630661206
0.1568090618 -0.1003156006 0.002047233121629527 0.0007380388013425816
0.1621305197 -0.1003156006 0.002028688521042655 0.0007729037372467857
0.1674519777 -0.1003156006 0.0019991347790531797 0.0007838740808479456
0.1727734357 -0.1003156006 0.001964586342987698 0.0007856453931684551
0.1780948937 -0.1003156006 0.0019305420380398392 0.0007874232609677683
0.1834163517 -0.1003156006 0.0018963652989180246 0.0007892224512689527
0.1887378097 -0.1003156006 0.0018629706378509633 0.0007908178625345093
0.1940592676 -0.1003156006 0.0018308835752226219 0.000793019728058587
0.1993807256 -0.1003156006 0.0018076995089546682 0.0007808611403625483
0.2047021836 -0.1003156006 0.0017871612611020178 0.0007635982510274267
0.2100236416 -0.1003156006 0.0017672452621283875 0.0007464794532563038
0.2153450996 -0.1003156006 0.001748008308624495 0.0007299405531329279
0.2206665576 -0.1003156006 0.001728033520511345 0.0007131866634460819
0.2259880155 -0.1003156006 0.0017080703667236938 0.0006963999351969558
0.2313094735 -0.1003156006 0.0016966353460476052 0.0006736079521377055
0.2366309315 -0.1003156006 0.0016889267079546473 0.0006498416129288298
0.2419523895 -0.1003156006 0.0016810655032131578 0.0006261890291481515
0.2472738475 -0.1003156006 0.0016735528242678192 0.0006025262864185625
0.2525953054 -0.1003156006 0.0016646522242122058 0.0005787800761450493
0.2579167783 -0.1003156006 0.0016569315340718488 0.0005558575569426835
0.2632382214 -0.1003156006 0.0016660750522123925 0.0005303371043967449
0.2685596943 -0.1003156006 0.0016798321812115928 0.0005037317792631896
0.2738811374 -0.1003156006 0.0016943567379643007 0.0004761846603215601
0.2792026103 -0.1003156006 0.001708061383050049 0.0004493138380137869
0.2845240533 -0.1003156006 0.001720503827563876 0.00042488230646665367
0.2898455262 -0.1003156006 0.0017327319341778195 0.00040052362111147244
0.2951669693 -0.1003156006 0.0017625276766921661 0.00039980485474576177
0.3004884422 -0.1003156006 0.001795350113895629 0.00040276757617084373
0.3058098853 -0.1003156006 0.0018231704236320216 0.00040628280910502104
0.3111313581 -0.1003156006 0.0018510493758936105 0.0004098402445544366
0.3164528012 -0.1003156006 0.0018790045081931957 0.0004132984453146218
0.3217742741 -0.1003156006 0.001906596570572815 0.0004178782449193068
0.3270957172 -0.1003156006 0.0019230833593922142 0.00045373812407965386
0.3324171901 -0.1003156006 0.0019383574497022485 0.0004896219004201216
0.3377386332 -0.1003156006 0.00195395212893464 0.0005255480217336491
0.343060106 -0.1003156006 0.0019698871859129908 0.0005614277985964448
0.3483815491 -0.1003156006 0.0019815364097957072 0.0005950662045591291
0.353703022 -0.1003156006 0.0019850022089398004 0.0006375209074097325
0.3590244651 -0.1003156006 0.0019687793688804023 0.000699396783886598
0.364345938 -0.1003156006 0.0019533690480502976 0.0007613174860050904
0.369667381 -0.1003156006 0.0019352070047098983 0.0008188308389818351
0.3749888539 -0.1003156006 0.00191774947119753 0.0008776579976200246
0.380310297 -0.1003156006 0.0019005887477472395 0.0009365243011134795
0.3856317699 -0.1003156006 0.0018407332918284611 0.0010054554123248034
0.390953213 -0.1003156006 0.00176945206424806 0.0010702934285359124
0.3962746859 -0.1003156006 0.001697589801682647 0.0011335489297517507
0.4015961289 -0.1003156006 0.001626496863985911 0.0011969124561429026
0.4069176018 -0.1003156006 0.0015546655120379637 0.0012606780253546761
0.4122390449 -0.1003156006 0.001464884837900006 0.0013050544774397851
0.4175605178 -0.1003156006 0.0013433270451504626 0.0013317529513568963
0.4228819609 -0.1003156006 0.0012200201846924946 0.0013597797520157689
0.4282034338 -0.1003156006 0.0010960461583141858 0.0013876972068180453
0.4335248768 -0.1003156006 0.000980533211429577 0.001411020368136001
0.4388463497 -0.1003156006 0.0008606393691001138 0.0014187562067850454
0.4441677928 -0.1003156006 0.0007277025156180314 0.001385511833197593
0.4494892657 -0.1003156006 0.0005953131229436089 0.001351991437551157
0.4548107088 -0.1003156006 0.000470251339369166 0.0013195423001153444
0.4601321816 -0.1003156006 0.00034172790691323483 0.0012869263127248648
0.4654536247 -0.1003156006 0.00022554112102920375 0.0012347875425632111
0.4707750976 -0.1003156006 0.0001297361145661664 0.0011541592361234776
0.4760965407 -0.1003156006 3.763198935361371e-05 0.0010789906755269878
0.4814180136 -0.1003156006 -5.4664082731014676e-05 0.0010038800478596535
0.4867394567 -0.1003156006 -0.0001467957175285698 0.0009279556267335915
0.4920609295 -0.1003156006 -0.00020027789449922313 0.0008448329585103521
0.4973823726 -0.1003156006 -0.00024335435176225896 0.0007628873288345191
0.5027038455 -0.1003156006 -0.0002850789925953482 0.0006809001302128092
0.5080252886 -0.1003156006 -0.00032697591266961883 0.0005988777603975698
0.5133467317 -0.1003156006 -0.0003545291206933539 0.0005337097674506553
0.5186682343 -0.1003156006 -0.00036104433732123364 0.0004791136184586218
0.5239896774 -0.1003156006 -0.0003675713382889463 0.0004244339534431543
0.5293111205 -0.1003156006 -0.0003756204647853894 0.0003705196261468276
0.5346325636 -0.1003156006 -0.000384545573742188 0.00033443063818824014
0.5399540663 -0.1003156006 -0.00038730909175524225 0.0003183807470841105
0.5452755094 -0.1003156006 -0.00038890011441749714 0.00030324208153508685
0.5505969524 -0.1003156006 -0.0003936451378183666 0.0002864118537919768
0.5559183955 -0.1003156006 -0.00041321883285181293 0.00029029107964068644
0.5612398982 -0.1003156006 -0.000434430489322428 0.0003062791850606095
0.5665613413 -0.1003156006 -0.00045631699021366775 0.000321295938618345
0.5718827844 -0.1003156006 -0.0004917818074521324 0.0003380323038819018
0.5772042274 -0.1003156006 -0.0005425825579125649 0.0003714015952487146
0.5825257301 -0.1003156006 -0.0005943270305718453 0.00040547599375973507
0.5878471732 -0.1003156006 -0.000658715529743196 0.0004368514945193531
0.5931686163 -0.1003156006 -0.0007389313578979564 0.00047431666495530687
0.5984900594 -0.1003156006 -0.0008171308175487241 0.0005133186355307311
0.6038115621 -0.1003156006 -0.0009176148540022607 0.0005505500877969994
0.6091330051 -0.1003156006 -0.0010206864330252405 0.0005847013898757127
0.6144544482 -0.1003156006 -0.0011395411067069677 0.0006185544311467054
0.6197758913 -0.1003156006 -0.0012657532486665107 0.0006447418900965013
0.625097394 -0.1003156006 -0.001399598160771528 0.0006671546255419959
0.6304188371 -0.1003156006 -0.0015465126381973208 0.0006823395684409141
0.6357402802 -0.1003156006 -0.00169425151125874 0.0006912148225582788
0.6410617828 -0.1003156006 -0.00184775962345758 0.000697497969626528
0.6463832259 -0.1003156006 -0.002005312768111524 0.0006981516211761504
0.651704669 -0.1003156006 -0.002166001692927732 0.0006966335048616998
0.6570261121 -0.1003156006 -0.0023311092770871115 0.0006886243232718831
0.6623476148 -0.1003156006 -0.0024996748299115543 0.0006805129064281545
0.6676690578 -0.1003156006 -0.0026711665695592617 0.0006705689377086609
0.6729905009 -0.1003156006 -0.002847093628515698 0.0006609186508913979
0.678311944 -0.1003156006 -0.003028031072732206 0.0006514582551307318
0.6836334467 -0.1003156006 -0.003212730192238871 0.0006449244320382847
0.6889548898 -0.1003156006 -0.0034048682124004645 0.0006455745203081568
0.6942763329 -0.1003156006 -0.0036068370661587875 0.0006468331836675845
0.6995977759 -0.1003156006 -0.0038180086362974344 0.0006542844013188215
0.7049192786 -0.1003156006 -0.004040000938290235 0.0006685010290535981
0.7102407217 -0.1003156006 -0.004276801081395741 0.0006906772916981117
0.7155621648 -0.1003156006 -0.004535246399245643 0.0007185635091474763
0.7208836079 -0.1003156006 -0.004813911296306233 0.0007490385275024732
0.7262051105 -0.1003156006 -0.005115006972147718 0.0007856096574108192
0.7315265536 -0.1003156006 -0.005445947547303511 0.0008279357682378962
0.7368479967 -0.1003156006 -0.005817258436009062 0.0008742861730179447
0.7421694398 -0.1003156006 -0.006222222485158282 0.0009240689453864043
0.7474909425 -0.1003156006 -0.006652349266349764 0.0009572331651151565
0.7528123856 -0.1003156006 -0.0071416025479200855 0.0009918334380143404
0.7581338286 -0.1003156006 -0.007679435834204518 0.001021101041038949
-0.3008363545 -0.09699654579 -0.0006084626719564824 0.0013218489621039016
-0.2955148816 -0.09699654579 -0.0006091472075385948 0.00127708852208331
-0.2901934385 -0.09699654579 -0.0005679983096618153 0.001226476357329931
-0.2848719656 -0.09699654579 -0.0004995331781561603 0.0011739132255062742
-0.2795505226 -0.09699654579 -0.00042621733353636037 0.0011141575309143988
-0.2742290497 -0.09699654579 -0.0003300646644505372 0.0010576213034615882
-0.2689076066 -0.09699654579 -0.00020407851477306652 0.0010028353533214256
-0.2635861337 -0.09699654579 -0.00010185158528173979 0.0009444235786053425
-0.2582646906 -0.09699654579 -9.357299929112727e-05 0.0009096039539293279
-0.2529432178 -0.09699654579 -7.254018867174144e-05 0.000888123990688793
-0.2476217598 -0.09699654579 -3.943955068481902e-05 0.0008792558821438537
-0.2423003018 -0.09699654579 1.578757819729121e-06 0.0008763138025873119
-0.2369788438 -0.09699654579 1.9582452198082202e-05 0.0008675466814146358
-0.2316573858 -0.09699654579 5.172711297291696e-05 0.0008523373190835455
-0.2263359278 -0.09699654579 7.089401183744739e-05 0.0008532762063666312
-0.2210144699 -0.09699654579 0.000104242266367055 0.0008241253221362922
-0.2156930119 -0.09699654579 0.00015770665454031948 0.0007681630940517954
-0.2103715539 -0.09699654579 0.0002039660426074897 0.0006928848996675779
-0.2050500959 -0.09699654579 0.00022284877024755093 0.0006465403922340838
-0.1997286379 -0.09699654579 0.00022914969752951017 0.0006153263369643229
-0.19440718 -0.09699654579 0.00023397506729625693 0.0005931771644289228
-0.189085722 -0.09699654579 0.0002668656339406415 0.000560732073477325
-0.183764264 -0.09699654579 0.00030377754177577314 0.0005271507044860231
-0.178442806 -0.09699654579 0.0003497040949701695 0.0004778243609694032
-0.173121348 -0.09699654579 0.00039547444992493253 0.0004504998263038122
-0.16779989 -0.09699654579 0.0004352320787454811 0.00044287986314343143
-0.1624784321 -0.09699654579 0.00047005662629498565 0.00043670307618047527
-0.1571569741 -0.09699654579 0.0004988965523672177 0.0004270656644607188
-0.1518355161 -0.09699654579 0.0005281136223710311 0.000409586665440682
-0.1465140581 -0.09699654579 0.000556396021557424 0.0003922986972581198
-0.1411926001 -0.09699654579 0.0005901930149125755 0.00037595873267184916
-0.1358711421 -0.09699654579 0.0006332896528641593 0.0003589940122307599
-0.1305496842 -0.09699654579 0.0006781365953556452 0.0003423429611660113
-0.1252282262 -0.09699654579 0.0007210665207639677 0.0003266908416407408
-0.1199067682 -0.09699654579 0.0007534645093605499 0.000318583027863724
-0.1145853102 -0.09699654579 0.0007840639652610883 0.00031235515415804457
-0.1092638522 -0.09699654579 0.0008138404741749669 0.0003065809844179919
-0.1039423943 -0.09699654579 0.0008429383269804536 0.00030279273477277146
-0.09862093627 -0.09699654579 0.0008713821262940321 0.0002912558141464351
-0.09329947084 -0.09699654579 0.0008995167498553676 0.000279766588495185
-0.08797801286 -0.09699654579 0.00092776368509994 0.000268323824465424
-0.08265655488 -0.09699654579 0.0009564431314112276 0.000257693955531022
-0.0773350969 -0.09699654579 0.000984219903369452 0.00025395053581594095
-0.07201363891 -0.09699654579 0.001012226247373357 0.0002509287807331785
-0.06669218093 -0.09699654579 0.0010398409842246148 0.00024803057744792785
-0.06137072667 -0.09699654579 0.001067600407803135 0.00024501086228186065
-0.05604926869 -0.09699654579 0.0010980634018101453 0.00024335179923772575
-0.05072781071 -0.09699654579 0.001128079253034354 0.00024179991280563805
-0.045406349 -0.09699654579 0.0011579757136059435 0.00024022908337015855
-0.04008489102 -0.09699654579 0.0011896597006992443 0.00023800276009621363
-0.03476343304 -0.09699654579 0.0012228843376319693 0.00023433226783134377
-0.02944197692 -0.09699654579 0.0012606042050035725 0.00022650859035033176
-0.02412051894 -0.09699654579 0.0012975999637226939 0.00021885973322980103
-0.01879905909 -0.09699654579 0.0013352198246419564 0.00021100373025854311
-0.01347760204 -0.09699654579 0.001372645666922352 0.00020282532452337533
-0.00815614406 -0.09699654579 0.0014082887279223725 0.00020249917454073297
-0.00283468538 -0.09699654579 0.0014423623139592416 0.00020760583344660836
0.002486772602 -0.09699654579 0.0014768597276207604 0.00021307112941343012
0.007808230817 -0.09699654579 0.0015113427540027057 0.00021847577964684528
0.0131296888 -0.09699654579 0.001545844242862265 0.00022374174892808536
0.01845114678 -0.09699654579 0.001574528883510162 0.00023330706971078698
0.02377260476 -0.09699654579 0.0015994714627404606 0.00024560946732238184
0.02909406275 -0.09699654579 0.0016248021154306777 0.0002585695590310058
0.03441552073 -0.09699654579 0.0016504375737368575 0.000271569500766372
0.03973697871 -0.09699654579 0.0016749207531360029 0.00028400109273776244
0.04505843669 -0.09699654579 0.0016942911269072001 0.0002919982376692926
0.05037989467 -0.09699654579 0.0017106089037520551 0.00028997956289851187
0.05570135266 -0.09699654579 0.001726906135775418 0.00028797044025348815
0.06102281436 -0.09699654579 0.0017438110179556837 0.0002852255606119192
0.06634426862 -0.09699654579 0.001760025117505231 0.0002832902457465279
0.0716657266 -0.09699654579 0.0017761950380341899 0.00028137188772046765
0.07698718458 -0.09699654579 0.001817216322138711 0.00029071497137309185
0.08230864257 -0.09699654579 0.0018590989254026415 0.0003002468159744815
0.08763010055 -0.09699654579 0.0019005344949857513 0.0003101046108956006
0.09295155853 -0.09699654579 0.0019420703769627214 0.00031979852585663606
0.09827301651 -0.09699654579 0.0019837176995801693 0.00032948376197495865
0.1035944745 -0.09699654579 0.0020189962020340222 0.00035102413294048026
0.1089159325 -0.09699654579 0.002047666416631858 0.0003932061118174575
0.1142373979 -0.09699654579 0.002074141886135099 0.0004346225351673051
0.1195588559 -0.09699654579 0.0020995626785289758 0.0004748520347845954
0.1248803139 -0.09699654579 0.002125469087365443 0.0005150893169145969
0.1302017719 -0.09699654579 0.0021521304652856463 0.0005565603327903007
0.1355232298 -0.09699654579 0.0021477643661376574 0.0005987797693117042
0.1408446878 -0.09699654579 0.0021260474824311643 0.0006386914420360604
0.1461661458 -0.09699654579 0.0021042502517218914 0.0006782840477897846
0.1514876038 -0.09699654579 0.002083746688169304 0.0007176556410353584
0.1568090618 -0.09699654579 0.0020630049974932076 0.0007570560332936078
0.1621305197 -0.09699654579 0.0020427736144919212 0.0007951003775641347
0.1674519777 -0.09699654579 0.0020102276285063328 0.0008050701597484438
0.1727734357 -0.09699654579 0.0019736951408092316 0.0008056727901318623
0.1780948937 -0.09699654579 0.0019352861548496184 0.0008060985760859464
0.1834163517 -0.09699654579 0.001897717529090061 0.0008063528504998176
0.1887378097 -0.09699654579 0.0018620449108657732 0.0008077097473699042
0.1940592676 -0.09699654579 0.0018260032408769279 0.000809030208294006
0.1993807256 -0.09699654579 0.001803362620701683 0.0007947082696963832
0.2047021836 -0.09699654579 0.00178329115268317 0.0007756751961311636
0.2100236416 -0.09699654579 0.0017624750827901887 0.0007583130120773554
0.2153450996 -0.09699654579 0.0017413255047240889 0.0007411708326528166
0.2206665576 -0.09699654579 0.0017202185173958615 0.0007239857200657491
0.2259880155 -0.09699654579 0.0016996193770430978 0.0007067256616442166
0.2313094735 -0.09699654579 0.0016880923320470203 0.0006837505903349381
0.2366309315 -0.09699654579 0.001680323348243575 0.0006583678688803773
0.2419523895 -0.09699654579 0.0016726652370392936 0.0006330076713980318
0.2472738475 -0.09699654579 0.0016648039250207797 0.0006076380329267567
0.2525953054 -0.09699654579 0.0016573349708458608 0.0005831690796863969
0.2579167783 -0.09699654579 0.0016493853658082881 0.0005590101134012159
0.2632382214 -0.09699654579 0.0016625168798449538 0.0005292793110240239
0.2685596943 -0.09699654579 0.0016797499148193166 0.0004985548321208385
0.2738811374 -0.09699654579 0.001696266808519604 0.0004691443838159525
0.2792026103 -0.09699654579 0.0017101316318149354 0.00044183092785435096
0.2845240533 -0.09699654579 0.0017257887448308424 0.00041391550315677996
0.2898455262 -0.09699654579 0.0017411856330185544 0.000385371615525281
0.2951669693 -0.09699654579 0.0017767255028549025 0.0003849868264164319
0.3004884422 -0.09699654579 0.0018113746658170752 0.00038804419206342586
0.3058098853 -0.09699654579 0.0018467186165381274 0.0003907252784833595
0.3111313581 -0.09699654579 0.001881652584956681 0.0003933941610951113
0.3164528012 -0.09699654579 0.0019154556906890575 0.00039627911207237106
0.3217742741 -0.09699654579 0.0019441796040431116 0.0004017695544740901
0.3270957172 -0.09699654579 0.0019654951261726763 0.0004400977971514223
0.3324171901 -0.09699654579 0.0019867263012972314 0.0004784276204192591
0.3377386332 -0.09699654579 0.002006558618851267 0.0005160010199684717
0.343060106 -0.09699654579 0.0020253565933785467 0.0005530596046885648
0.3483815491 -0.09699654579 0.0020437143178344383 0.0005902451680750255
0.353703022 -0.09699654579 0.00205265706817574 0.0006391045653051727
0.3590244651 -0.09699654579 0.002042261815568054 0.0007076586952924072
0.364345938 -0.09699654579 0.0020282795347489604 0.0007725305268047949
0.369667381 -0.09699654579 0.0020143480037103966 0.0008374069014728481
0.3749888539 -0.09699654579 0.0020005816366627707 0.0009017585259057278
0.380310297 -0.09699654579 0.0019852306697328683 0.00096390162109331
0.3856317699 -0.09699654579 0.001924003117468319 0.0010330687313794382
0.390953213 -0.09699654579 0.0018513482262672181 0.0011067572301598565
0.3962746859 -0.09699654579 0.0017779605386102986 0.0011821066311598974
0.4015961289 -0.09699654579 0.0017056766413308547 0.001253560512895906
0.4069176018 -0.09699654579 0.0016335439252816754 0.001320639057477234
0.4122390449 -0.09699654579 0.0015354474657882095 0.0013726936370773396
0.4175605178 -0.09699654579 0.001404150030440424 0.0014055876172330473
0.4228819609 -0.09699654579 0.0012778269435033763 0.0014345844771432414
0.4282034338 -0.09699654579 0.0011542148202427277 0.0014618494860103338
0.4335248768 -0.09699654579 0.001029565832170463 0.0014895687771542259
0.4388463497 -0.09699654579 0.0008956516579114266 0.0014993339544356484
0.4441677928 -0.09699654579 0.0007553660157883182 0.0014635235248796716
0.4494892657 -0.09699654579 0.0006166404544283563 0.001428917025085486
0.4548107088 -0.09699654579 0.0004776571479856311 0.0013947252928052654
0.4601321816 -0.09699654579 0.00033973103719387647 0.0013603916889214777
0.4654536247 -0.09699654579 0.00022384197132707955 0.0013070185724781325
0.4707750976 -0.09699654579 0.00012534511711938102 0.001222489666373424
0.4760965407 -0.09699654579 2.3532189527972978e-05 0.0011347452552087438
0.4814180136 -0.09699654579 -7.542651327126504e-05 0.001050126688170745
0.4867394567 -0.09699654579 -0.00017083368131034783 0.000970200667170865
0.4920609295 -0.09699654579 -0.0002226451244119631 0.0008820006247644727
0.4973823726 -0.09699654579 -0.00026337782449216695 0.0007914712233737449
0.5027038455 -0.09699654579 -0.00030491638398341285 0.0007047802557436114
0.5080252886 -0.09699654579 -0.000346248422866035 0.0006170524995518752
0.5133467317 -0.09699654579 -0.00036950028927346595 0.0005429990722483394
0.5186682343 -0.09699654579 -0.0003711601583741306 0.0004854280658267223
0.5239896774 -0.09699654579 -0.0003793126226000739 0.000431135721740319
0.5293111205 -0.09699654579 -0.00038406322331643454 0.0003751419567431805
0.5346325636 -0.09699654579 -0.00038326464600548925 0.0003372125660876933
0.5399540663 -0.09699654579 -0.0003830612091520788 0.0003228400893640041
0.5452755094 -0.09699654579 -0.000384903177470304 0.0003079173068365504
0.5505969524 -0.09699654579 -0.00038414208663286546 0.00029354498100642455
0.5559183955 -0.09699654579 -0.00039582639618204263 0.0003056002407954688
0.5612398982 -0.09699654579 -0.00041657139621470137 0.00032160412264175414
0.5665613413 -0.09699654579 -0.00043684284669402067 0.00033796433021226173
0.5718827844 -0.09699654579 -0.0004660182025906135 0.00036789228765728887
0.5772042274 -0.09699654579 -0.0005157906008198442 0.0004042683430832315
0.5825257301 -0.09699654579 -0.0005648939303718345 0.0004406301101819792
0.5878471732 -0.09699654579 -0.0006263964053288034 0.0004852252012100504
0.5931686163 -0.09699654579 -0.0007065434864339064 0.0005278168238911094
0.5984900594 -0.09699654579 -0.0007902440225972636 0.0005744120276574084
0.6038115621 -0.09699654579 -0.0008905452320686237 0.0006157484571338622
0.6091330051 -0.09699654579 -0.0010050634371105648 0.0006574217351239013
0.6144544482 -0.09699654579 -0.0011218507449081627 0.0006937151079985357
0.6197758913 -0.09699654579 -0.0012566296929876328 0.000724222294477433
0.625097394 -0.09699654579 -0.0013935070061528588 0.0007515881288986555
0.6304188371 -0.09699654579 -0.001540431627148203 0.0007705670827853467
0.6357402802 -0.09699654579 -0.0016932355863363707 0.0007879479907869965
0.6410617828 -0.09699654579 -0.0018467356786855019 0.0007958016728296012
0.6463832259 -0.09699654579 -0.0020087094125753567 0.0007996160724829689
0.651704669 -0.09699654579 -0.002174503001459227 0.0007990736922612819
0.6570261121 -0.09699654579 -0.0023423924775798845 0.0007934873607184219
0.6623476148 -0.09699654579 -0.0025121378013565126 0.0007860921279995211
0.6676690578 -0.09699654579 -0.002684595313592173 0.0007788551782839728
0.6729905009 -0.09699654579 -0.002859313466649497 0.0007703782375153203
0.678311944 -0.09699654579 -0.0030371812796662744 0.0007647003967806728
0.6836334467 -0.09699654579 -0.0032188303427416395 0.0007620125136167017
0.6889548898 -0.09699654579 -0.003408032655392546 0.0007639345834729909
0.6942763329 -0.09699654579 -0.003605796556532663 0.0007712614288974275
0.6995977759 -0.09699654579 -0.0038104819466287495 0.0007871321301524249
0.7049192786 -0.09699654579 -0.0040278861251144245 0.0008088856746412408
0.7102407217 -0.09699654579 -0.004261917931870916 0.0008380635003167018
0.7155621648 -0.09699654579 -0.004516953631206105 0.0008782546343741706
0.7208836079 -0.09699654579 -0.004790671053406847 0.0009293159166649603
0.7262051105 -0.09699654579 -0.005091214508146521 0.000986236318299893
0.7315265536 -0.09699654579 -0.005415726688099616 0.001047191916216962
0.7368479967 -0.09699654579 -0.005778127597312442 0.0011136842320433212
0.7421694398 -0.09699654579 -0.00618177478956076 0.001182025726867017
0.7474909425 -0.09699654579 -0.00662197723847348 0.0012531638312039794
0.7528123856 -0.09699654579 -0.007114390627436684 0.0013144228217706446
0.7581338286 -0.09699654579 -0.007658382745089768 0.00136698137404551
-0.3008363545 -0.09367749095 -0.0006354507185552885 0.0013080341966911718
-0.2955148816 -0.09367749095 -0.0006341304662302248 0.001262585619857646
-0.2901934385 -0.09367749095 -0.0006167731189985003 0.0012124272513063122
-0.2848719656 -0.09367749095 -0.0005593699273495521 0.001152887183954745
-0.2795505226 -0.09367749095 -0.0004826194329088519 0.0010962005672325243
-0.2742290497 -0.09367749095 -0.0003841749143049293 0.0010404668922323703
-0.2689076066 -0.09367749095 -0.0002702281176154879 0.000983997227417148
-0.2635861337 -0.09367749095 -0.0001345933393768824 0.000897678991472954
-0.2582646906 -0.09367749095 -8.128811074631414e-05 0.0008547914590805006
-0.2529432178 -0.09367749095 -6.901091213277905e-05 0.0008261204269707163
-0.2476217598 -0.09367749095 -3.577959717652928e-05 0.0008253537735012631
-0.2423003018 -0.09367749095 8.041410008478013e-06 0.0008640222073623439
-0.2369788438 -0.09367749095 3.867618507865811e-05 0.0008609524320949502
-0.2316573858 -0.09367749095 5.036165115271563e-05 0.0008621515026285163
-0.2263359278 -0.09367749095 7.099721172262297e-05 0.0008594205120529594