VARIABLES = X,Y,phix,phiy
ZONE I=200,J=200,F=POINT 
-0.3008363545 -0.1003156006 0.0011928746429167 -0.0006620323341835024
-0.2955148816 -0.1003156006 0.0012338444830676286 -0.0006353629382905379
-0.2901934385 -0.1003156006 0.0012324824770299837 -0.0005958633496392905
-0.2848719656 -0.1003156006 0.0012277055355695784 -0.0005548241889769721
-0.2795505226 -0.1003156006 0.0012062830934274741 -0.0005137021058059872
-0.2742290497 -0.1003156006 0.0011687147986464723 -0.00047709540888085184
-0.2689076066 -0.1003156006 0.0011376588368245222 -0.0004477735171761547
-0.2635861337 -0.1003156006 0.0011135258253416383 -0.0004363266521563663
-0.2582646906 -0.1003156006 0.0010990602781949723 -0.0004004555816572671
-0.2529432178 -0.1003156006 0.0010760695751447615 -0.0003540418808292845
-0.2476217598 -0.1003156006 0.0010436540120208092 -0.0002997387566678292
-0.2423003018 -0.1003156006 0.0010058532164636906 -0.00026688750676737464
-0.2369788438 -0.1003156006 0.0009605219175094119 -0.0002584081626405916
-0.2316573858 -0.1003156006 0.0009102334286775109 -0.0002601800643369574
-0.2263359278 -0.1003156006 0.0008586973507556608 -0.00027811194421964295
-0.2210144699 -0.1003156006 0.0008295717830163494 -0.00031171982801284613
-0.2156930119 -0.1003156006 0.0007996996859235771 -0.00035250126729449016
-0.2103715539 -0.1003156006 0.0007708670248542387 -0.0004008933220640051
-0.2050500959 -0.1003156006 0.0007680429742087015 -0.00041831746493063905
-0.1997286379 -0.1003156006 0.0007640164393403556 -0.00043375377825148506
-0.19440718 -0.1003156006 0.0007641154504800875 -0.00044008272924840256
-0.189085722 -0.1003156006 0.0007806526840764026 -0.00042447886960000767
-0.183764264 -0.1003156006 0.0008025747527294794 -0.0004011963659857169
-0.178442806 -0.1003156006 0.0008243939400000085 -0.0003824120939748002
-0.173121348 -0.1003156006 0.0008183720986310607 -0.00036206291577798883
-0.16779989 -0.1003156006 0.0008056370285715979 -0.00034483569202825744
-0.1624784321 -0.1003156006 0.0007987125687085995 -0.0003225943842040332
-0.1571569741 -0.1003156006 0.0007894302214220219 -0.00030953984143148043
-0.1518355161 -0.1003156006 0.00077976981421919 -0.00029854933162278463
-0.1465140581 -0.1003156006 0.0007689573571453501 -0.00028658662892595696
-0.1411926001 -0.1003156006 0.0007570889464921666 -0.00027688455742536897
-0.1358711421 -0.1003156006 0.0007413850681105036 -0.0002697836613058646
-0.1305496842 -0.1003156006 0.0007263053900118398 -0.0002626842057219117
-0.1252282262 -0.1003156006 0.0007093748819654306 -0.0002563328705669733
-0.1199067682 -0.1003156006 0.0006871307678472599 -0.00024033875067580262
-0.1145853102 -0.1003156006 0.0006636690058729704 -0.00022140661036558972
-0.1092638522 -0.1003156006 0.0006385087364288702 -0.00020255812525266025
-0.1039423943 -0.1003156006 0.0006137697498741945 -0.00018467227381545144
-0.09862093627 -0.1003156006 0.0005922200982764395 -0.00017129340115139293
-0.09329947084 -0.1003156006 0.000570612175005221 -0.00015812807616362963
-0.08797801286 -0.1003156006 0.0005487557572707012 -0.0001449471557392812
-0.08265655488 -0.1003156006 0.0005272320824314187 -0.00013273833684524183
-0.0773350969 -0.1003156006 0.0005121292242831923 -0.0001337051753545766
-0.07201363891 -0.1003156006 0.0004965798125812874 -0.00013471938169349178
-0.06669218093 -0.1003156006 0.0004802822362574024 -0.00013576801420177773
-0.06137072667 -0.1003156006 0.0004654360263282859 -0.00013683387272869335
-0.05604926869 -0.1003156006 0.00044795597407790296 -0.00013515926915550378
-0.05072781071 -0.1003156006 0.00043026361213203246 -0.00013268915079147345
-0.045406349 -0.1003156006 0.0004127795409132985 -0.0001305568575061644
-0.04008489102 -0.1003156006 0.00039460225819357657 -0.00012773699223910003
-0.03476343304 -0.1003156006 0.00037387868179297284 -0.00012293373389613845
-0.02944197692 -0.1003156006 0.00034743748243026764 -0.00011300363293866594
-0.02412051894 -0.1003156006 0.00032085157373372013 -0.0001029673429601501
-0.01879905909 -0.1003156006 0.0002942876637855181 -9.267178303444532e-05
-0.01347760204 -0.1003156006 0.00026784567738442433 -8.264556525681178e-05
-0.00815614406 -0.1003156006 0.00024082341557782246 -7.678605370039086e-05
-0.00283468538 -0.1003156006 0.00021214250475832692 -7.37998222186182e-05
0.002486772602 -0.1003156006 0.00018465785110839992 -7.107274093330249e-05
0.007808230817 -0.1003156006 0.0001563598830365964 -6.837509015439105e-05
0.0131296888 -0.1003156006 0.00012868659486174592 -6.542806530917498e-05
0.01845114678 -0.1003156006 9.872242167903874e-05 -6.781477942036767e-05
0.02377260476 -0.1003156006 6.79798611571332e-05 -7.41551277171936e-05
0.02909406275 -0.1003156006 3.662221747238413e-05 -8.064907513749037e-05
0.03441552073 -0.1003156006 5.7859750122598085e-06 -8.715231475994518e-05
0.03973697871 -0.1003156006 -2.5594275332020386e-05 -9.350603634825796e-05
0.04505843669 -0.1003156006 -5.087201571261567e-05 -0.0001006438429241882
0.05037989467 -0.1003156006 -7.09407298413184e-05 -0.0001075046806731313
0.05570135266 -0.1003156006 -9.106957911348695e-05 -0.00011446339350134231
0.06102281436 -0.1003156006 -0.00011107615770125691 -0.00012127155698041453
0.06634426862 -0.1003156006 -0.00013094380838595717 -0.0001280448181159919
0.0716657266 -0.1003156006 -0.00015076918392592324 -0.00013486856191812603
0.07698718458 -0.1003156006 -0.00018660368642599694 -0.00014501675035665169
0.08230864257 -0.1003156006 -0.00022360279901916446 -0.0001551287776097005
0.08763010055 -0.1003156006 -0.00026052668705545714 -0.00016512558960926957
0.09295155853 -0.1003156006 -0.0002978925141431663 -0.00017528780077070977
0.09827301651 -0.1003156006 -0.0003343007394528274 -0.00018554189327689996
0.1035944745 -0.1003156006 -0.0003723849108365787 -0.00020232474140121016
0.1089159325 -0.1003156006 -0.0004154725991227944 -0.00023154990251041753
0.1142373979 -0.1003156006 -0.00045893289138351437 -0.0002607810296599185
0.1195588559 -0.1003156006 -0.0005003476741994829 -0.0002907751166220666
0.1248803139 -0.1003156006 -0.0005422808204299501 -0.00032061996755445617
0.1302017719 -0.1003156006 -0.0005847115785395391 -0.00035010345956060506
0.1355232298 -0.1003156006 -0.0006144395751566266 -0.00039353402216177704
0.1408446878 -0.1003156006 -0.0006350293113957706 -0.00044695570784779884
0.1461661458 -0.1003156006 -0.0006543598246632261 -0.0004985874893091333
0.1514876038 -0.1003156006 -0.0006742926297572927 -0.0005502301992232638
0.1568090618 -0.1003156006 -0.0006940270902953182 -0.000601874117882062
0.1621305197 -0.1003156006 -0.0007134640095104467 -0.0006534270598382931
0.1674519777 -0.1003156006 -0.0007127733752962054 -0.0007081360710414667
0.1727734357 -0.1003156006 -0.000704035185094359 -0.0007652369598475143
0.1780948937 -0.1003156006 -0.000695854564786697 -0.0008223332724664107
0.1834163517 -0.1003156006 -0.0006872454881819208 -0.000879442511933134
0.1887378097 -0.1003156006 -0.0006784319468905564 -0.0009358914047474756
0.1940592676 -0.1003156006 -0.0006688721469929529 -0.0009916447683132963
0.1993807256 -0.1003156006 -0.0006185551594087215 -0.00103168042255676
0.2047021836 -0.1003156006 -0.0005550004589926226 -0.0010664150763341265
0.2100236416 -0.1003156006 -0.0004915813658383548 -0.0011012207621110164
0.2153450996 -0.1003156006 -0.00043195312603478493 -0.001132644509219764
0.2206665576 -0.1003156006 -0.000370532392439132 -0.0011652599747659835
0.2259880155 -0.1003156006 -0.00030931268203862204 -0.0011978704178959205
0.2313094735 -0.1003156006 -0.00023164106461746287 -0.0011697195072432685
0.2366309315 -0.1003156006 -0.0001558738569875325 -0.001124274910408376
0.2419523895 -0.1003156006 -8.244878477837817e-05 -0.0010790189122308748
0.2472738475 -0.1003156006 -9.610076307474634e-06 -0.0010335415163370042
0.2525953054 -0.1003156006 6.133935512828011e-05 -0.0009878100795698507
0.2579167783 -0.1003156006 0.00012755359597382894 -0.0009434444352060996
0.2632382214 -0.1003156006 0.00013434434510948716 -0.000850695671085535
0.2685596943 -0.1003156006 0.00012641950705757592 -0.0007438355037032671
0.2738811374 -0.1003156006 0.00011954267498578322 -0.000633091476021973
0.2792026103 -0.1003156006 0.00011174111058315572 -0.0005254308112936909
0.2845240533 -0.1003156006 0.00010323849435933124 -0.00042668678645423525
0.2898455262 -0.1003156006 9.456211301790168e-05 -0.0003279300602591911
0.2951669693 -0.1003156006 -1.2944309775807868e-05 -0.0002557566010147775
0.3004884422 -0.1003156006 -0.00013573278580828287 -0.00018887154866524097
0.3058098853 -0.1003156006 -0.000248601873661415 -0.0001306855779355645
0.3111313581 -0.1003156006 -0.0003609944181295255 -7.250596053307308e-05
0.3164528012 -0.1003156006 -0.00047405840983446174 -1.437699913489377e-05
0.3217742741 -0.1003156006 -0.0005873225790762355 4.1374839536131065e-05
0.3270957172 -0.1003156006 -0.0007322322655124664 -1.6889344931142043e-05
0.3324171901 -0.1003156006 -0.0008777880185480132 -7.520563856213107e-05
0.3377386332 -0.1003156006 -0.0010227977365527617 -0.000133498532477715
0.343060106 -0.1003156006 -0.001167952529684136 -0.00019179204064186505
0.3483815491 -0.1003156006 -0.0012994127823630663 -0.00024674256664462986
0.353703022 -0.1003156006 -0.0014059553055574578 -0.00033232200333523803
0.3590244651 -0.1003156006 -0.0014582821396196427 -0.0004877306718985434
0.364345938 -0.1003156006 -0.0015105566818214395 -0.000643235020733324
0.369667381 -0.1003156006 -0.0015566523784544721 -0.000785377061723437
0.3749888539 -0.1003156006 -0.0016049720443100507 -0.0009310324227042468
0.380310297 -0.1003156006 -0.0016535137070982323 -0.001077959996223545
0.3856317699 -0.1003156006 -0.0015992098473407263 -0.0012264789556659709
0.390953213 -0.1003156006 -0.001518806148268884 -0.0013624753804545402
0.3962746859 -0.1003156006 -0.0014391214320455497 -0.0014963325177558204
0.4015961289 -0.1003156006 -0.0013606042377036494 -0.0016306816561104853
0.4069176018 -0.1003156006 -0.0012821832199946283 -0.0017656122391058332
0.4122390449 -0.1003156006 -0.0011814308125642334 -0.001857712311730888
0.4175605178 -0.1003156006 -0.001034935315002814 -0.0019047381245272984
0.4228819609 -0.1003156006 -0.0008837506548045472 -0.0019527521414267493
0.4282034338 -0.1003156006 -0.0007327553433417551 -0.00200096313367914
0.4335248768 -0.1003156006 -0.0005967523021373055 -0.0020446790086231658
0.4388463497 -0.1003156006 -0.0004617469257031907 -0.0020630338897640577
0.4441677928 -0.1003156006 -0.00032997366937680584 -0.0020140425341825608
0.4494892657 -0.1003156006 -0.00019976687353939074 -0.00196561343923705
0.4548107088 -0.1003156006 -7.867984790918173e-05 -0.001921078323623913
0.4601321816 -0.1003156006 4.69469858636266e-05 -0.0018746508192980364
0.4654536247 -0.1003156006 0.000148413241436128 -0.0018030154936966246
0.4707750976 -0.1003156006 0.00020975456649302755 -0.0016960733155489045
0.4760965407 -0.1003156006 0.0002671091485906378 -0.001597835392809571
0.4814180136 -0.1003156006 0.00032397582918789716 -0.0014996036684179475
0.4867394567 -0.1003156006 0.0003813007079594677 -0.0014002240391238698
0.4920609295 -0.1003156006 0.000379767196742972 -0.0012919969262837068
0.4973823726 -0.1003156006 0.00036171484172824707 -0.0011867281320768668
0.5027038455 -0.1003156006 0.00034371847670681136 -0.0010813290724393568
0.5080252886 -0.1003156006 0.00032603235773044685 -0.0009758299143706881
0.5133467317 -0.1003156006 0.0002851571937998593 -0.0008948126132410939
0.5186682343 -0.1003156006 0.00020745162121260435 -0.0008260185291472012
0.5239896774 -0.1003156006 0.0001296495493769837 -0.0007571135784046128
0.5293111205 -0.1003156006 5.465645015178087e-05 -0.0006899564326250707
0.5346325636 -0.1003156006 -2.3748524534014063e-05 -0.000651140966836997
0.5399540663 -0.1003156006 -0.00012110210307042757 -0.0006409221273999074
0.5452755094 -0.1003156006 -0.00022131398874340022 -0.0006307971730156587
0.5505969524 -0.1003156006 -0.0003148099429197524 -0.0006203415704587296
0.5559183955 -0.1003156006 -0.00039325774589025564 -0.0006447158291530038
0.5612398982 -0.1003156006 -0.0004757396595968007 -0.0006871507887016541
0.5665613413 -0.1003156006 -0.0005573880861745825 -0.0007284671235312795
0.5718827844 -0.1003156006 -0.0006180471065536824 -0.0007753472607042279
0.5772042274 -0.1003156006 -0.0006623094594631654 -0.0008491805726890641
0.5825257301 -0.1003156006 -0.0007058241861591003 -0.0009235528696453896
0.5878471732 -0.1003156006 -0.0007320008115460625 -0.000996069349439926
0.5931686163 -0.1003156006 -0.0007371183241884232 -0.0010769301325125752
0.5984900594 -0.1003156006 -0.0007438374830024288 -0.0011606772475052304
0.6038115621 -0.1003156006 -0.0007198666552416736 -0.0012406257073318513
0.6091330051 -0.1003156006 -0.0006919958503164459 -0.0013155721162752703
0.6144544482 -0.1003156006 -0.0006437331553973614 -0.0013877915883017404
0.6197758913 -0.1003156006 -0.0005835845299098492 -0.001447293554139031
0.625097394 -0.1003156006 -0.000515704296826916 -0.0014981445144125968
0.6304188371 -0.1003156006 -0.00043028003792388713 -0.001532546821322107
0.6357402802 -0.1003156006 -0.00034726148022065173 -0.001554405824063609
0.6410617828 -0.1003156006 -0.0002547519675680989 -0.0015625781641998738
0.6463832259 -0.1003156006 -0.000156602005996138 -0.001555203726560843
0.651704669 -0.1003156006 -5.585788258441804e-05 -0.0015363706110846462
0.6570261121 -0.1003156006 3.987784085028774e-05 -0.0014946688843219225
0.6623476148 -0.1003156006 0.00013592359984212154 -0.001438478937899335
0.6676690578 -0.1003156006 0.0002308120944958628 -0.0013685881400437993
0.6729905009 -0.1003156006 0.0003150926264521539 -0.001276842629853449
0.678311944 -0.1003156006 0.00039116077499500333 -0.00117572198667365
0.6836334467 -0.1003156006 0.00046233878670713034 -0.001061718862760314
0.6889548898 -0.1003156006 0.0005210670172743285 -0.0009322771814785466
0.6942763329 -0.1003156006 0.0005680789035571558 -0.0007914651386376481
0.6995977759 -0.1003156006 0.0006033247178340256 -0.0006412914984227066
0.7049192786 -0.1003156006 0.0006269786399653334 -0.00048345746203408993
0.7102407217 -0.1003156006 0.0006360769626765423 -0.0003166675618126633
0.7155621648 -0.1003156006 0.0006292301962669819 -0.00014270826398590534
0.7208836079 -0.1003156006 0.0006073943123687807 3.451955520666887e-05
0.7262051105 -0.1003156006 0.0005725394184923481 0.00021555526846225748
0.7315265536 -0.1003156006 0.0005220907670056413 0.0004002792977407747
0.7368479967 -0.1003156006 0.00045125238376631253 0.0005881273404642487
0.7421694398 -0.1003156006 0.00036728643235468014 0.0007781571506656411
0.7474909425 -0.1003156006 0.00027322440491967036 0.000962709818283634
0.7528123856 -0.1003156006 0.00016184979326054513 0.0011508999112241729
0.7581338286 -0.1003156006 3.51686804428466e-05 0.0013390048575091906
-0.3008363545 -0.09699654579 0.0011694326110822386 -0.0006651452089484128
-0.2955148816 -0.09699654579 0.0012273637539150196 -0.0006399480340602158
-0.2901934385 -0.09699654579 0.001255918640969723 -0.0006026727792329151
-0.2848719656 -0.09699654579 0.0012442683831292657 -0.0005619337338880303
-0.2795505226 -0.09699654579 0.0012230678207325188 -0.000523915629419473
-0.2742290497 -0.09699654579 0.0011938409063029466 -0.0004938763603383513
-0.2689076066 -0.09699654579 0.0011627430144878742 -0.00046573354386671004
-0.2635861337 -0.09699654579 0.0011457381608673835 -0.00042427590629897364
-0.2582646906 -0.09699654579 0.0011505785891702933 -0.00038325409475096725
-0.2529432178 -0.09699654579 0.0011251794888803835 -0.0003286197698074563
-0.2476217598 -0.09699654579 0.0010833655820308976 -0.0002677069581088791
-0.2423003018 -0.09699654579 0.0010272844868862818 -0.00022322862652890247
-0.2369788438 -0.09699654579 0.000979637154907149 -0.00021380736223454948
-0.2316573858 -0.09699654579 0.0009267722942897773 -0.00022503134589952625
-0.2263359278 -0.09699654579 0.0008649799216987301 -0.000256154575664551
-0.2210144699 -0.09699654579 0.0008296143170089752 -0.0002959448263925807
-0.2156930119 -0.09699654579 0.0007992986064140561 -0.00034536862401426683
-0.2103715539 -0.09699654579 0.0007612686690842141 -0.00040668208451605524
-0.2050500959 -0.09699654579 0.0007525050078716922 -0.00043531713268629214
-0.1997286379 -0.09699654579 0.0007526967111377432 -0.0004412950311892497
-0.19440718 -0.09699654579 0.0007522447800589879 -0.00044866261599433644
-0.189085722 -0.09699654579 0.0007736098938074747 -0.00044415868902185736
-0.183764264 -0.09699654579 0.0007958254420287034 -0.00042799565457364043
-0.178442806 -0.09699654579 0.0008120162995999808 -0.0003991817220876721
-0.173121348 -0.09699654579 0.0008099722237109736 -0.0003770392917396552
-0.16779989 -0.09699654579 0.000803893570136563 -0.0003515506262946238
-0.1624784321 -0.09699654579 0.0007962151203000446 -0.000317026442277263
-0.1571569741 -0.09699654579 0.0007873113896600315 -0.0002965385425756319
-0.1518355161 -0.09699654579 0.0007758184084930917 -0.00028243023333354597
-0.1465140581 -0.09699654579 0.0007653339704160476 -0.0002702337466537252
-0.1411926001 -0.09699654579 0.0007526923506889501 -0.00026047005245980045
-0.1358711421 -0.09699654579 0.0007355438341133988 -0.00025431214891830095
-0.1305496842 -0.09699654579 0.0007167628474777369 -0.000248640265570133
-0.1252282262 -0.09699654579 0.0006974317006131826 -0.00024302669986334753
-0.1199067682 -0.09699654579 0.000670628819283637 -0.00022625044591621123
-0.1145853102 -0.09699654579 0.0006430821465324324 -0.00020646659367058558
-0.1092638522 -0.09699654579 0.000615383104341847 -0.00018672530413674302
-0.1039423943 -0.09699654579 0.000585632090384148 -0.00016779512443549561
-0.09862093627 -0.09699654579 0.0005632505173345381 -0.00015545151754885113
-0.09329947084 -0.09699654579 0.0005411632699803676 -0.00014392457457949208
-0.08797801286 -0.09699654579 0.0005193155574812133 -0.00013333009649640367
-0.08265655488 -0.09699654579 0.0004977383739910834 -0.0001226098352697156
-0.0773350969 -0.09699654579 0.0004823712374760617 -0.0001236302696374944
-0.07201363891 -0.09699654579 0.00046679327764977515 -0.00012492532502775448
-0.06669218093 -0.09699654579 0.0004511487834298483 -0.0001262781874793307
-0.06137072667 -0.09699654579 0.0004362883359136079 -0.0001275933313884868
-0.05604926869 -0.09699654579 0.0004185240117022146 -0.00012499379549123346
-0.05072781071 -0.09699654579 0.0004003126469016247 -0.00012169994705146206
-0.045406349 -0.09699654579 0.00038202910491682695 -0.0001183968183917007
-0.04008489102 -0.09699654579 0.00036344224162490716 -0.00011462569719411826
-0.03476343304 -0.09699654579 0.0003428455401388406 -0.00010861893684856709
-0.02944197692 -0.09699654579 0.0003167492896020952 -9.761407651443368e-05
-0.02412051894 -0.09699654579 0.0002905865655286503 -8.679616846804687e-05
-0.01879905909 -0.09699654579 0.0002645212709162143 -7.576913026745572e-05
-0.01347760204 -0.09699654579 0.000238854034985535 -6.446625469104904e-05
-0.00815614406 -0.09699654579 0.000212356703180738 -5.824922703089615e-05
-0.00283468538 -0.09699654579 0.00018476240015299832 -5.558897903253167e-05
0.002486772602 -0.09699654579 0.00015771588852887702 -5.294364226408459e-05
0.007808230817 -0.09699654579 0.00013037300181719034 -5.0209815284985275e-05
0.0131296888 -0.09699654579 0.00010310695273416349 -4.755569537543989e-05
0.01845114678 -0.09699654579 7.328117277509063e-05 -5.033629573948579e-05
0.02377260476 -0.09699654579 4.260750655201872e-05 -5.693920524870763e-05
0.02909406275 -0.09699654579 1.1098340272902738e-05 -6.369459346039251e-05
0.03441552073 -0.09699654579 -2.019948926880829e-05 -7.046786900494148e-05
0.03973697871 -0.09699654579 -5.149347242578595e-05 -7.715298491654955e-05
0.04505843669 -0.09699654579 -7.654567249512626e-05 -8.4360117691731e-05
0.05037989467 -0.09699654579 -9.651826789333067e-05 -9.082708996077938e-05
0.05570135266 -0.09699654579 -0.00011634559940637177 -9.732489216573683e-05
0.06102281436 -0.09699654579 -0.0001360220370741575 -0.00010345025968170659
0.06634426862 -0.09699654579 -0.00015590526414636024 -0.00010992716737374066
0.0716657266 -0.09699654579 -0.00017578761361144969 -0.00011641236156648462
0.07698718458 -0.09699654579 -0.00021335395371462613 -0.00012587631854148813
0.08230864257 -0.09699654579 -0.00025121068963418524 -0.00013518033536409212
0.08763010055 -0.09699654579 -0.00029004729021691244 -0.00014482816702254543
0.09295155853 -0.09699654579 -0.00032805075117597443 -0.00015445935647596137
0.09827301651 -0.09699654579 -0.0003662437388520784 -0.00016401304798933447
0.1035944745 -0.09699654579 -0.0004071912818962532 -0.00018057589638090533
0.1089159325 -0.09699654579 -0.00045530748746134804 -0.00020919693322299173
0.1142373979 -0.09699654579 -0.0005029062286343583 -0.00023843787853187153
0.1195588559 -0.09699654579 -0.0005489560002659408 -0.00026779348427904856
0.1248803139 -0.09699654579 -0.0005949407154664456 -0.0002971523725912696
0.1302017719 -0.09699654579 -0.0006425105618993074 -0.0003265262938392813
0.1355232298 -0.09699654579 -0.0006764619435456008 -0.000373123689103599
0.1408446878 -0.09699654579 -0.0006995002699579783 -0.0004293603856710583
0.1461661458 -0.09699654579 -0.000722911352846311 -0.0004853259138122689
0.1514876038 -0.09699654579 -0.0007446765274097481 -0.0005407720068517214
0.1568090618 -0.09699654579 -0.0007665883242127981 -0.0005962190144647912
0.1621305197 -0.09699654579 -0.0007880196729356214 -0.000650431519278942
0.1674519777 -0.09699654579 -0.0007869258509360605 -0.0007095005876106068
0.1727734357 -0.09699654579 -0.0007784679940324291 -0.0007710161699602914
0.1780948937 -0.09699654579 -0.0007702713516960206 -0.0008347889885764808
0.1834163517 -0.09699654579 -0.0007621021921337919 -0.0008975730959832154
0.1887378097 -0.09699654579 -0.0007530547606001986 -0.0009564005120077408
0.1940592676 -0.09699654579 -0.0007447965638454288 -0.0010152508779463464
0.1993807256 -0.09699654579 -0.0006883064144933138 -0.0010581584026512763
0.2047021836 -0.09699654579 -0.0006195138523171919 -0.001096545472750937
0.2100236416 -0.09699654579 -0.0005528122687972242 -0.001131547905362624
0.2153450996 -0.09699654579 -0.0004866824640481555 -0.0011662025513560826
0.2206665576 -0.09699654579 -0.00042052790051433494 -0.0012008803183588704
0.2259880155 -0.09699654579 -0.0003545087841251487 -0.0012355217430229629
0.2313094735 -0.09699654579 -0.00027048497748150614 -0.0012047727529618565
0.2366309315 -0.09699654579 -0.00018405551397956914 -0.001158038873956869
0.2419523895 -0.09699654579 -9.813049957669247e-05 -0.001111325461750592
0.2472738475 -0.09699654579 -1.1629216917360462e-05 -0.0010646143929350343
0.2525953054 -0.09699654579 6.94361893759683e-05 -0.0010185629076629118
0.2579167783 -0.09699654579 0.00014616296394536892 -0.0009728765361214247
0.2632382214 -0.09699654579 0.00015704854174910867 -0.0008637459291533413
0.2685596943 -0.09699654579 0.00015313565057935484 -0.0007415321699189001
0.2738811374 -0.09699654579 0.00014855384614192175 -0.0006242936836819117
0.2792026103 -0.09699654579 0.00014349971115339271 -0.000513799300756167
0.2845240533 -0.09699654579 0.00013807031659147646 -0.0004017772569868628
0.2898455262 -0.09699654579 0.0001336345039128132 -0.0002869614515103777
0.2951669693 -0.09699654579 1.3973855301605807e-05 -0.00020604370953446722
0.3004884422 -0.09699654579 -0.00011278061072904155 -0.00013464558254281552
0.3058098853 -0.09699654579 -0.00024140067781010686 -6.271274227012978e-05
0.3111313581 -0.09699654579 -0.00036991419642549967 9.172497605942147e-06
0.3164528012 -0.09699654579 -0.0004938162186021212 7.771746585781585e-05
0.3217742741 -0.09699654579 -0.0006135020121970096 0.00013277326018508906
0.3270957172 -0.09699654579 -0.0007740027861991545 7.009319797309951e-05
0.3324171901 -0.09699654579 -0.0009342250177972075 7.367840897868232e-06
0.3377386332 -0.09699654579 -0.0010886551505885926 -5.424024099946266e-05
0.343060106 -0.09699654579 -0.0012379368573284858 -0.00011484885504922089
0.3483815491 -0.09699654579 -0.0013872342832751022 -0.00017561890288787034
0.353703022 -0.09699654579 -0.0015070292886191694 -0.0002770832877287602
0.3590244651 -0.09699654579 -0.0015650082993375668 -0.00045022501886118546
0.364345938 -0.09699654579 -0.001617750902469203 -0.0006131933681236482
0.369667381 -0.09699654579 -0.0016710577218176505 -0.0007760758347117568
0.3749888539 -0.09699654579 -0.0017267401081904154 -0.0009383335728597068
0.380310297 -0.09699654579 -0.0017798434342024786 -0.001093551852764719
0.3856317699 -0.09699654579 -0.0017208832937085897 -0.0012420580842934226
0.390953213 -0.09699654579 -0.0016326413340050964 -0.0013936779808905574
0.3962746859 -0.09699654579 -0.0015427487970460791 -0.0015490537154799052
0.4015961289 -0.09699654579 -0.001456690581637253 -0.0016967054723888444
0.4069176018 -0.09699654579 -0.0013735750004890872 -0.0018372494057501828
0.4122390449 -0.09699654579 -0.0012535434349400455 -0.0019390693346938359
0.4175605178 -0.09699654579 -0.0010867318563319741 -0.001990362956243992
0.4228819609 -0.09699654579 -0.000930480846746755 -0.002038426872143686
0.4282034338 -0.09699654579 -0.0007797792907048035 -0.002084826383598197
0.4335248768 -0.09699654579 -0.0006275644513760787 -0.0021317078574365654
0.4388463497 -0.09699654579 -0.0004696175292108909 -0.0021478685912355478
0.4441677928 -0.09699654579 -0.0003287688576769508 -0.002093109130355613
0.4494892657 -0.09699654579 -0.00018981078190846067 -0.0020403282200432463
0.4548107088 -0.09699654579 -4.971964561392748e-05 -0.001988062568063665
0.4601321816 -0.09699654579 8.860275971481634e-05 -0.0019363859879292127
0.4654536247 -0.09699654579 0.00018822455298318847 -0.0018633116648345861
0.4707750976 -0.09699654579 0.000252914739519557 -0.0017499822863527338
0.4760965407 -0.09699654579 0.00032038442937081776 -0.0016316006993567437
0.4814180136 -0.09699654579 0.0003851872145477334 -0.001518156003932029
0.4867394567 -0.09699654579 0.0004459062232622844 -0.001412271436318357
0.4920609295 -0.09699654579 0.00044129713557744554 -0.0012963654519991023
0.4973823726 -0.09699654579 0.00042049611067278893 -0.0011778247485434313
0.5027038455 -0.09699654579 0.00039930528581424903 -0.001064667966080255
0.5080252886 -0.09699654579 0.0003791806657308775 -0.0009505030120691371
0.5133467317 -0.09699654579 0.00032738130266196414 -0.0008538282780934949
0.5186682343 -0.09699654579 0.00024135547628080183 -0.0007785478043407548
0.5239896774 -0.09699654579 0.0001636013862991666 -0.0007102847078776327
0.5293111205 -0.09699654579 8.156478616146178e-05 -0.000638426406891726
0.5346325636 -0.09699654579 -1.5635396082727155e-05 -0.0005922394653531843
0.5399540663 -0.09699654579 -0.00012103288496090085 -0.0005827551571673009
0.5452755094 -0.09699654579 -0.00022079521454664732 -0.0005730524626971043
0.5505969524 -0.09699654579 -0.0003257788984705615 -0.0005635710199959404
0.5559183955 -0.09699654579 -0.00042199178444134205 -0.0005967371825904278
0.5612398982 -0.09699654579 -0.0005051331782520862 -0.0006388924819369734
0.5665613413 -0.09699654579 -0.0005890617767344897 -0.000681490387172204
0.5718827844 -0.09699654579 -0.0006648662587292951 -0.0007449894996020584
0.5772042274 -0.09699654579 -0.0007112759369554819 -0.0008224603359906365
0.5825257301 -0.09699654579 -0.0007573465008549307 -0.0009000931528694791
0.5878471732 -0.09699654579 -0.0007888178738750584 -0.000989648577124332
0.5931686163 -0.09699654579 -0.0007925975882746799 -0.0010783023684600363
0.5984900594 -0.09699654579 -0.0007930581624019568 -0.001172623630761593
0.6038115621 -0.09699654579 -0.0007701572865409169 -0.0012581707598702384
0.6091330051 -0.09699654579 -0.000728053299249541 -0.0013444994423232666
0.6144544482 -0.09699654579 -0.0006831151605779835 -0.0014209451046207355
0.6197758913 -0.09699654579 -0.0006110660660687556 -0.0014846302340309344
0.625097394 -0.09699654579 -0.0005369983363218225 -0.0015431902644411906
0.6304188371 -0.09699654579 -0.00044865109174671 -0.0015825831688712675
0.6357402802 -0.09699654579 -0.00034870106340885904 -0.0016156844502421485
0.6410617828 -0.09699654579 -0.0002497129646334591 -0.0016280993129840487
0.6463832259 -0.09699654579 -0.0001410892064846119 -0.0016221366155501841
0.651704669 -0.09699654579 -3.0302311457531128e-05 -0.0016010966708480203
0.6570261121 -0.09699654579 7.507272274076963e-05 -0.0015555073467071994
0.6623476148 -0.09699654579 0.00017920650701945212 -0.0014976660113878396
0.6676690578 -0.09699654579 0.00028127143719135564 -0.0014243828610030248
0.6729905009 -0.09699654579 0.00037686715754038175 -0.0013320695557719406
0.678311944 -0.09699654579 0.0004667624848728648 -0.0012245962895492434
0.6836334467 -0.09699654579 0.0005475096075337532 -0.001106062368500129
0.6889548898 -0.09699654579 0.0006135003185320263 -0.0009715270801557532
0.6942763329 -0.09699654579 0.0006666889587391913 -0.000823089630586862
0.6995977759 -0.09699654579 0.0007097053203304269 -0.0006630374303500541
0.7049192786 -0.09699654579 0.0007373892134925394 -0.0004961056982527595
0.7102407217 -0.09699654579 0.0007492701098538562 -0.0003205798814299871
0.7155621648 -0.09699654579 0.000743286902155544 -0.00013769019176224518
0.7208836079 -0.09699654579 0.0007236168765187695 5.23658519359563e-05
0.7262051105 -0.09699654579 0.0006871453853990935 0.0002450114872005906
0.7315265536 -0.09699654579 0.0006365381241679514 0.00043753753109372986
0.7368479967 -0.09699654579 0.0005716710810623043 0.0006359885671751474
0.7421694398 -0.09699654579 0.00048817232204809673 0.0008327489834736032
0.7474909425 -0.09699654579 0.000391020757107915 0.001030805985407042
0.7528123856 -0.09699654579 0.0002761458213076645 0.0012266920948333568
0.7581338286 -0.09699654579 0.00014894793892799644 0.0014222687728352008
-0.3008363545 -0.09367749095 0.0011443545128061172 -0.0006689211649549325
-0.2955148816 -0.09367749095 0.0012000266717001617 -0.0006447389067919294
-0.2901934385 -0.09367749095 0.0012662065087436672 -0.0006092083073748532
-0.2848719656 -0.09367749095 0.0012667251432087437 -0.0005710641512232481
-0.2795505226 -0.09367749095 0.0012429680802687976 -0.0005352262805630943
-0.2742290497 -0.09367749095 0.0012232954373547086 -0.0005126066666068674
-0.2689076066 -0.09367749095 0.0012032226760754425 -0.0004847055210132434