VARIABLES = X,Y,phix,phiy
ZONE I=200,J=200,F=POINT 
-0.3008363545 -0.1003156006 -0.0009380041393738911 -0.0002496027052880505
-0.2955148816 -0.1003156006 -0.0009486375931327475 -0.0002696300400835693
-0.2901934385 -0.1003156006 -0.0009367697943207035 -0.00025147005911675094
-0.2848719656 -0.1003156006 -0.0009270182079285302 -0.00023567457087334982
-0.2795505226 -0.1003156006 -0.000919536855930125 -0.00022440527409725827
-0.2742290497 -0.1003156006 -0.0009045500405742186 -0.00022117687926032683
-0.2689076066 -0.1003156006 -0.0008745931453594346 -0.00023006077486362536
-0.2635861337 -0.1003156006 -0.0008508846464590571 -0.00021436853460252885
-0.2582646906 -0.1003156006 -0.0008307583325126437 -0.0001499298716323599
-0.2529432178 -0.1003156006 -0.0008270201414911218 -6.199479099125785e-05
-0.2476217598 -0.1003156006 -0.0008314329684460449 3.0057503790161132e-05
-0.2423003018 -0.1003156006 -0.0008552045597905999 7.960653304993172e-05
-0.2369788438 -0.1003156006 -0.0008901884920019364 0.00010590288076219093
-0.2316573858 -0.1003156006 -0.0009146199309316035 0.00013963102633422495
-0.2263359278 -0.1003156006 -0.0009610224495303286 0.000159501687867379
-0.2210144699 -0.1003156006 -0.0009581715867436367 0.0001564194587766694
-0.2156930119 -0.1003156006 -0.0009572985325596381 0.00014294544440343507
-0.2103715539 -0.1003156006 -0.0009658146042088317 0.00010286100394743862
-0.2050500959 -0.1003156006 -0.0009425212409013432 8.334126454049785e-05
-0.1997286379 -0.1003156006 -0.0009149306331472712 6.608856753329161e-05
-0.19440718 -0.1003156006 -0.0008640809062034364 5.586763940417845e-05
-0.189085722 -0.1003156006 -0.0008776998471774741 6.66745186016123e-05
-0.183764264 -0.1003156006 -0.0009004556293749638 9.123742215538669e-05
-0.178442806 -0.1003156006 -0.0009192267333661754 0.00012305971974696669
-0.173121348 -0.1003156006 -0.0009157558771757556 0.00014496397229635198
-0.16779989 -0.1003156006 -0.000908928604313692 0.00017153517322492798
-0.1624784321 -0.1003156006 -0.0009040226170177174 0.00019703256423769493
-0.1571569741 -0.1003156006 -0.0009136950157925902 0.0002142726802147877
-0.1518355161 -0.1003156006 -0.0009369169544528762 0.00023081779563581802
-0.1465140581 -0.1003156006 -0.0009624271945525416 0.00024755749585862985
-0.1411926001 -0.1003156006 -0.0009872489557632635 0.0002594214126118278
-0.1358711421 -0.1003156006 -0.0010151485715776724 0.0002624781744281111
-0.1305496842 -0.1003156006 -0.0010424208249729201 0.0002655663583918357
-0.1252282262 -0.1003156006 -0.0010734085574517222 0.00026783517893605506
-0.1199067682 -0.1003156006 -0.001091973709147829 0.00026492580649746403
-0.1145853102 -0.1003156006 -0.0011080596793573807 0.00026162752220851553
-0.1092638522 -0.1003156006 -0.0011249507624538624 0.00025653885222891645
-0.1039423943 -0.1003156006 -0.0011411324954342871 0.00025086766997887603
-0.09862093627 -0.1003156006 -0.0011446356287286665 0.00024867409436106995
-0.09329947084 -0.1003156006 -0.0011510099669746825 0.0002470174190624764
-0.08797801286 -0.1003156006 -0.0011575368688003936 0.0002453429664191404
-0.08265655488 -0.1003156006 -0.0011656170141074041 0.00024383839760554437
-0.0773350969 -0.1003156006 -0.0011864821510711317 0.0002466733016261865
-0.07201363891 -0.1003156006 -0.0012075336192117856 0.0002492547409330051
-0.06669218093 -0.1003156006 -0.0012287188680633416 0.00025182165569856516
-0.06137072667 -0.1003156006 -0.0012508210524155082 0.00025460908967179293
-0.05604926869 -0.1003156006 -0.001263266322631127 0.00025339727414402745
-0.05072781071 -0.1003156006 -0.00127300261940512 0.00025197910066230075
-0.045406349 -0.1003156006 -0.001283383049417086 0.0002508573393898038
-0.04008489102 -0.1003156006 -0.001293380771535664 0.00024873977167769607
-0.03476343304 -0.1003156006 -0.0013031600506833196 0.0002487016097614713
-0.02944197692 -0.1003156006 -0.0013138114819626456 0.0002546939126032053
-0.02412051894 -0.1003156006 -0.0013253461565896879 0.0002609309291525378
-0.01879905909 -0.1003156006 -0.001336395754624382 0.00026763449281552487
-0.01347760204 -0.1003156006 -0.0013479742165271307 0.00027383253046365066
-0.00815614406 -0.1003156006 -0.0013652393250880195 0.00027792222681653013
-0.00283468538 -0.1003156006 -0.0013871204904730855 0.0002805992525766722
0.002486772602 -0.1003156006 -0.0014105173606014858 0.0002838327938520266
0.007808230817 -0.1003156006 -0.0014334904220845639 0.000287029697464031
0.0131296888 -0.1003156006 -0.001455702366932732 0.00028985239716953343
0.01845114678 -0.1003156006 -0.0014776262046842885 0.00028149392393242136
0.02377260476 -0.1003156006 -0.0015007128308628403 0.00026460414484225125
0.02909406275 -0.1003156006 -0.0015233013707570385 0.00024695998253679475
0.03441552073 -0.1003156006 -0.0015458880375896953 0.00022929339538926683
0.03973697871 -0.1003156006 -0.00156824820962245 0.00021230484041981742
0.04505843669 -0.1003156006 -0.0015772942544973318 0.00019600588210648464
0.05037989467 -0.1003156006 -0.0015678380799513635 0.00018273447957560047
0.05570135266 -0.1003156006 -0.0015570678283025564 0.00016893312069060943
0.06102281436 -0.1003156006 -0.00154558965283988 0.00015531160997582898
0.06634426862 -0.1003156006 -0.001535523535932261 0.00014192048348813985
0.0716657266 -0.1003156006 -0.001526447529593255 0.0001287783897091296
0.07698718458 -0.1003156006 -0.0015434230888212587 0.000135820090140847
0.08230864257 -0.1003156006 -0.0015641242303288565 0.00014459299386369753
0.08763010055 -0.1003156006 -0.0015830677662314553 0.00015450612440097205
0.09295155853 -0.1003156006 -0.0016026102586645273 0.000163237322179285
0.09827301651 -0.1003156006 -0.0016228946443625214 0.00017129111493121392
0.1035944745 -0.1003156006 -0.0016477726693092977 0.00016579172874269527
0.1089159325 -0.1003156006 -0.0016867857420131162 0.00013275104471635943
0.1142373979 -0.1003156006 -0.0017256714940962366 9.968476041815134e-05
0.1195588559 -0.1003156006 -0.001761807473262254 6.699444205763142e-05
0.1248803139 -0.1003156006 -0.0017991463332837129 3.407300400542926e-05
0.1302017719 -0.1003156006 -0.001836377655071071 1.216068895878892e-06
0.1355232298 -0.1003156006 -0.0018512818846476706 -4.8994783553407676e-05
0.1408446878 -0.1003156006 -0.0018490616524537344 -0.00011154484121170177
0.1461661458 -0.1003156006 -0.001848458696340994 -0.0001715799087755616
0.1514876038 -0.1003156006 -0.0018461253562616269 -0.00023167376300416346
0.1568090618 -0.1003156006 -0.001844372519218486 -0.00029169582019232846
0.1621305197 -0.1003156006 -0.0018431277694411466 -0.0003516662311048664
0.1674519777 -0.1003156006 -0.0018146832740650394 -0.0004016696795060442
0.1727734357 -0.1003156006 -0.0017758045859373483 -0.0004483316829082464
0.1780948937 -0.1003156006 -0.001736334427258381 -0.0004949160059343574
0.1834163517 -0.1003156006 -0.001696775544056686 -0.0005415179090212363
0.1887378097 -0.1003156006 -0.001658263416365413 -0.0005876350232962885
0.1940592676 -0.1003156006 -0.0016193012545387556 -0.0006328035809514976
0.1993807256 -0.1003156006 -0.0015473893133614023 -0.0006668031795157283
0.2047021836 -0.1003156006 -0.0014648299700502562 -0.0006971223793021668
0.2100236416 -0.1003156006 -0.0013810985865304398 -0.000727507917621284
0.2153450996 -0.1003156006 -0.0013018471865880036 -0.0007550990787775915
0.2206665576 -0.1003156006 -0.001222310710594634 -0.0007835176460295708
0.2259880155 -0.1003156006 -0.0011412049113338723 -0.0008119169243100874
0.2313094735 -0.1003156006 -0.0010520690778230823 -0.0007850319893521846
0.2366309315 -0.1003156006 -0.0009659469999568894 -0.0007433839409766738
0.2419523895 -0.1003156006 -0.0008821607852266107 -0.0007020709796066176
0.2472738475 -0.1003156006 -0.0007984629636644888 -0.0006607064822640807
0.2525953054 -0.1003156006 -0.0007163025061663486 -0.0006194446611301353
0.2579167783 -0.1003156006 -0.0006386027520026605 -0.0005797344915956611
0.2632382214 -0.1003156006 -0.0005983383505658952 -0.000510704916838226
0.2685596943 -0.1003156006 -0.0005683529408051545 -0.00043314719272076225
0.2738811374 -0.1003156006 -0.0005388610613043342 -0.0003534668461358911
0.2792026103 -0.1003156006 -0.0005093752595345061 -0.0002754657131350308
0.2845240533 -0.1003156006 -0.0004794732242986791 -0.00020263607829303673
0.2898455262 -0.1003156006 -0.0004501806489970551 -0.00012981531797632951
0.2951669693 -0.1003156006 -0.0004623177216542763 -7.36481414065808e-05
0.3004884422 -0.1003156006 -0.00048172723548271985 -2.021219114718268e-05
0.3058098853 -0.1003156006 -0.0004976138893194567 3.009104018438321e-05
0.3111313581 -0.1003156006 -0.0005133367081518478 8.056863827604335e-05
0.3164528012 -0.1003156006 -0.0005289846223784622 0.00013095400646813532
0.3217742741 -0.1003156006 -0.0005452681081383476 0.00018042076244617535
0.3270957172 -0.1003156006 -0.0005730304572540077 0.00019630453877911874
0.3324171901 -0.1003156006 -0.00059989946077102 0.00021218722706788115
0.3377386332 -0.1003156006 -0.0006276856940108929 0.0002281385337823931
0.343060106 -0.1003156006 -0.000654871199429056 0.00024398743531631908
0.3483815491 -0.1003156006 -0.0006774517648211757 0.0002599363998158384
0.353703022 -0.1003156006 -0.0006935826288619159 0.00026583397053021553
0.3590244651 -0.1003156006 -0.0006973094973250816 0.0002496865454547196
0.364345938 -0.1003156006 -0.0007019853042013322 0.0002334689082609434
0.369667381 -0.1003156006 -0.0007032536453602484 0.0002207766587285744
0.3749888539 -0.1003156006 -0.0007060318742808225 0.00020703208121997094
0.380310297 -0.1003156006 -0.0007074261000800617 0.0001932447596824139
0.3856317699 -0.1003156006 -0.0006843347781227272 0.00017934278397364515
0.390953213 -0.1003156006 -0.000653957737359626 0.0001678232971739301
0.3962746859 -0.1003156006 -0.0006248267488462367 0.00015728480201639153
0.4015961289 -0.1003156006 -0.0005951302323467638 0.00014670137992497576
0.4069176018 -0.1003156006 -0.000565782877177586 0.00013587345442186738
0.4122390449 -0.1003156006 -0.0005348714983358063 0.00013237154611684223
0.4175605178 -0.1003156006 -0.0004945372052865058 0.00013693830860595467
0.4228819609 -0.1003156006 -0.00045535760641687346 0.0001415627543733936
0.4282034338 -0.1003156006 -0.00041549997843127274 0.00014615826889200872
0.4335248768 -0.1003156006 -0.0003779549406100159 0.0001509638528982988
0.4388463497 -0.1003156006 -0.00034202787296126535 0.00015875223594316847
0.4441677928 -0.1003156006 -0.0003070491970170138 0.00017314929977231214
0.4494892657 -0.1003156006 -0.00027171934215402643 0.00018792382114698293
0.4548107088 -0.1003156006 -0.00023653441621103956 0.00020206703427502236
0.4601321816 -0.1003156006 -0.0002017475155401217 0.00021609996080684037
0.4654536247 -0.1003156006 -0.0001718721923101519 0.00023083163894245455
0.4707750976 -0.1003156006 -0.00014575034542148486 0.0002465265800368008
0.4760965407 -0.1003156006 -0.00011965866415680574 0.0002608915278868658
0.4814180136 -0.1003156006 -9.415389665715176e-05 0.00027512359272325795
0.4867394567 -0.1003156006 -6.83752369326142e-05 0.00029003343271503165
0.4920609295 -0.1003156006 -4.698508690851432e-05 0.0002983199613928541
0.4973823726 -0.1003156006 -2.6017731694580503e-05 0.00030381438951938367
0.5027038455 -0.1003156006 -5.683282003190234e-06 0.0003092243094354077
0.5080252886 -0.1003156006 1.4893201886629533e-05 0.0003148723070188726
0.5133467317 -0.1003156006 3.675417083208123e-05 0.00031590945762841483
0.5186682343 -0.1003156006 5.981765330316281e-05 0.0003100964390623303
0.5239896774 -0.1003156006 8.337623959624124e-05 0.0003041462161351645
0.5293111205 -0.1003156006 0.00010654684366526869 0.00029857690476653523
0.5346325636 -0.1003156006 0.00013578308614081892 0.0002894520722749242
0.5399540663 -0.1003156006 0.00017070821498545746 0.0002729766725423063
0.5452755094 -0.1003156006 0.00020538336951636532 0.0002551482434694265
0.5505969524 -0.1003156006 0.00024055731361511645 0.00023996094192927243
0.5559183955 -0.1003156006 0.00029007643911318744 0.00022121982398809521
0.5612398982 -0.1003156006 0.0003462445749029743 0.00019647161844576325
0.5665613413 -0.1003156006 0.00040170741371208256 0.00017244604585611503
0.5718827844 -0.1003156006 0.0004669843108518929 0.00015459405168594608
0.5772042274 -0.1003156006 0.0005475087139997176 0.00013469128459584495
0.5825257301 -0.1003156006 0.0006290236989790273 0.0001143385752315982
0.5878471732 -0.1003156006 0.000716054434801969 0.00010284035111092974
0.5931686163 -0.1003156006 0.0008154720830333908 9.688201988660805e-05
0.5984900594 -0.1003156006 0.0009147309914057132 8.937704098463991e-05
0.6038115621 -0.1003156006 0.001029084942623906 9.3332842814062e-05
0.6091330051 -0.1003156006 0.0011427210461784497 0.00010101824715596959
0.6144544482 -0.1003156006 0.0012664246049738646 0.00011699250975318245
0.6197758913 -0.1003156006 0.0013908432842579615 0.00014366329109413584
0.625097394 -0.1003156006 0.0015165328213042216 0.00017682674382712825
0.6304188371 -0.1003156006 0.001646895118630728 0.00022332615942171103
0.6357402802 -0.1003156006 0.0017734952139972719 0.00027572736932272103
0.6410617828 -0.1003156006 0.0019019894939178252 0.0003358036667588878
0.6463832259 -0.1003156006 0.0020315473333143864 0.0004048829802088327
0.651704669 -0.1003156006 0.0021589068113544957 0.0004782906207335421
0.6570261121 -0.1003156006 0.0022829204240899367 0.000559268985176117
0.6623476148 -0.1003156006 0.0024043413131281 0.0006434682073042015
0.6676690578 -0.1003156006 0.002524256275920343 0.0007317687938664802
0.6729905009 -0.1003156006 0.002642009615462663 0.0008244252468437689
0.678311944 -0.1003156006 0.0027585019927285786 0.0009181038981323368
0.6836334467 -0.1003156006 0.0028761416105192467 0.00101218105194022
0.6889548898 -0.1003156006 0.002991386679767958 0.0011028330877669243
0.6942763329 -0.1003156006 0.0031137261070088673 0.0011967640989531594
0.6995977759 -0.1003156006 0.003241487771381324 0.0012879325339321581
0.7049192786 -0.1003156006 0.003372714056642151 0.001378310409172166
0.7102407217 -0.1003156006 0.003514746639095561 0.001465664907217918
0.7155621648 -0.1003156006 0.003669201464600259 0.0015561389901796476
0.7208836079 -0.1003156006 0.0038377248486242753 0.0016506746468224647
0.7262051105 -0.1003156006 0.0040217702869058914 0.0017467993166351535
0.7315265536 -0.1003156006 0.0042245255870188205 0.0018488362975138226
0.7368479967 -0.1003156006 0.0044577121412121236 0.0019628041411488854
0.7421694398 -0.1003156006 0.004712799354115379 0.0020898481319677575
0.7474909425 -0.1003156006 0.0049773104562727015 0.0022381582746361104
0.7528123856 -0.1003156006 0.005281947971349408 0.0024140173711347974
0.7581338286 -0.1003156006 0.005613029277130568 0.0026150789841052147
-0.3008363545 -0.09699654579 -0.0009234120026245827 -0.00023013826202975378
-0.2955148816 -0.09699654579 -0.0009398565333020864 -0.0002517181277528526
-0.2901934385 -0.09699654579 -0.0009525693695566749 -0.00026062313471658714
-0.2848719656 -0.09699654579 -0.000944194567084171 -0.000247142300121779
-0.2795505226 -0.09699654579 -0.0009362838935683259 -0.0002323853466547505
-0.2742290497 -0.09699654579 -0.0009207720371980303 -0.0002348179264172389
-0.2689076066 -0.09699654579 -0.0008798175761510412 -0.0002480427092984587
-0.2635861337 -0.09699654579 -0.0008323939105151902 -0.00024301994023767306
-0.2582646906 -0.09699654579 -0.0007913687262082954 -0.00018545175605174337
-0.2529432178 -0.09699654579 -0.0007882657724028371 -9.752206767141946e-05
-0.2476217598 -0.09699654579 -0.000800553887817873 1.6616217957200484e-06
-0.2423003018 -0.09699654579 -0.000826686760126314 8.855609423997282e-05
-0.2369788438 -0.09699654579 -0.0008330182447602065 0.00012704363854205037
-0.2316573858 -0.09699654579 -0.0008741720489096335 0.00015780159849803217
-0.2263359278 -0.09699654579 -0.0009326016529499072 0.0001992022779901829
-0.2210144699 -0.09699654579 -0.0009425302040236487 0.00019488057416981497
-0.2156930119 -0.09699654579 -0.0009509370452103898 0.0001503608747124392
-0.2103715539 -0.09699654579 -0.0009734447023874454 7.84344811861153e-05
-0.2050500959 -0.09699654579 -0.0009589063919209902 4.2852182372304726e-05
-0.1997286379 -0.09699654579 -0.0009066726612990051 3.302900123317756e-05
-0.19440718 -0.09699654579 -0.0008453895135064134 3.6653693558235314e-05
-0.189085722 -0.09699654579 -0.0008414777234722951 7.324635685344273e-05
-0.183764264 -0.09699654579 -0.0008530836188231221 0.00011095018963896354
-0.178442806 -0.09699654579 -0.0008590940213347604 0.00013087803459176068
-0.173121348 -0.09699654579 -0.0008555898543918351 0.00015265691320579105
-0.16779989 -0.09699654579 -0.0008532397675028942 0.00017515491617366142
-0.1624784321 -0.09699654579 -0.0008523088021949028 0.00019655615987867857
-0.1571569741 -0.09699654579 -0.0008678200132773104 0.0002232971641087278
-0.1518355161 -0.09699654579 -0.0008983728351659757 0.00024328236712444255
-0.1465140581 -0.09699654579 -0.0009308972817373775 0.00026660774917638773
-0.1411926001 -0.09699654579 -0.0009639903885070755 0.00028309898336989275
-0.1358711421 -0.09699654579 -0.0009951747176214884 0.00028516834104508
-0.1305496842 -0.09699654579 -0.0010283196716927138 0.00028631254332071095
-0.1252282262 -0.09699654579 -0.001066831833165697 0.0002880887896076219
-0.1199067682 -0.09699654579 -0.001095303844575098 0.000282755862095218
-0.1145853102 -0.09699654579 -0.0011200915605644316 0.00027704752863075125
-0.1092638522 -0.09699654579 -0.0011441148507611123 0.0002702998861365769
-0.1039423943 -0.09699654579 -0.0011675468090144867 0.00025976798523145295
-0.09862093627 -0.09699654579 -0.001181159795454807 0.0002577192107806852
-0.09329947084 -0.09699654579 -0.0011958775922267435 0.00025568986650387237
-0.08797801286 -0.09699654579 -0.0012124251814376883 0.0002536565029462585
-0.08265655488 -0.09699654579 -0.0012275153103533715 0.0002513679218215688
-0.0773350969 -0.09699654579 -0.0012502049000464373 0.00025432507987776956
-0.07201363891 -0.09699654579 -0.0012736973572100535 0.00025695155177001043
-0.06669218093 -0.09699654579 -0.001297882875997079 0.00025964061911614155
-0.06137072667 -0.09699654579 -0.0013226648538925358 0.00026308403840023836
-0.05604926869 -0.09699654579 -0.0013343280829552575 0.0002610426759110107
-0.05072781071 -0.09699654579 -0.0013442238954217151 0.00025852898468039246
-0.045406349 -0.09699654579 -0.0013543957603172807 0.00025601657913094803
-0.04008489102 -0.09699654579 -0.0013626529051187523 0.0002527817658422469
-0.03476343304 -0.09699654579 -0.001371366169641993 0.000252170795870962
-0.02944197692 -0.09699654579 -0.0013830803784526681 0.00026037385951687705
-0.02412051894 -0.09699654579 -0.0013954667503677846 0.0002683603154159363
-0.01879905909 -0.09699654579 -0.0014068497509669548 0.00027655359179165417
-0.01347760204 -0.09699654579 -0.0014184188143788593 0.0002852190184488812
-0.00815614406 -0.09699654579 -0.001436157052824582 0.0002908869906552128
-0.00283468538 -0.09699654579 -0.001459424683527505 0.00029446724861073554
0.002486772602 -0.09699654579 -0.001481332182857172 0.00029814542737645783
0.007808230817 -0.09699654579 -0.001504138088547652 0.0003019822479650326
0.0131296888 -0.09699654579 -0.0015268399887746176 0.0003056218364132035
0.01845114678 -0.09699654579 -0.0015489036952477794 0.0002960340886873753
0.02377260476 -0.09699654579 -0.0015716723697523026 0.0002769210603104289
0.02909406275 -0.09699654579 -0.001594264331483078 0.0002567139737531038
0.03441552073 -0.09699654579 -0.0016162182630467868 0.00023642636132671828
0.03973697871 -0.09699654579 -0.0016385128193936221 0.00021717293317733655
0.04505843669 -0.09699654579 -0.0016448212694661762 0.0001989006170121796
0.05037989467 -0.09699654579 -0.0016303753364460556 0.00018457473692834494
0.05570135266 -0.09699654579 -0.0016151777328742042 0.00016988795079829225
0.06102281436 -0.09699654579 -0.0015981849766391742 0.00015503818826676364
0.06634426862 -0.09699654579 -0.001583902105514103 0.00014085117092975716
0.0716657266 -0.09699654579 -0.0015694865558776067 0.0001266751806591816
0.07698718458 -0.09699654579 -0.00158688759625903 0.00013859501919334015
0.08230864257 -0.09699654579 -0.0016063268986044094 0.00015213032614607566
0.08763010055 -0.09699654579 -0.0016266612971126923 0.00016469632925104107
0.09295155853 -0.09699654579 -0.001645978313450867 0.00017704573163473475
0.09827301651 -0.09699654579 -0.0016657298397991767 0.00018972093734271196
0.1035944745 -0.09699654579 -0.0016939123098936527 0.00018615096968890353
0.1089159325 -0.09699654579 -0.001739255626622353 0.00015252815056204983
0.1142373979 -0.09699654579 -0.0017843148254957921 0.0001186987396195814
0.1195588559 -0.09699654579 -0.0018275610146797246 8.498848695273404e-05
0.1248803139 -0.09699654579 -0.0018708983712737068 5.125845359627748e-05
0.1302017719 -0.09699654579 -0.001915070997786791 1.73323271992672e-05
0.1355232298 -0.09699654579 -0.0019332326791232227 -3.750561217695998e-05
0.1408446878 -0.09699654579 -0.001933758867369192 -0.00010340051765639661
0.1461661458 -0.09699654579 -0.0019346140177294304 -0.00016906102181467726
0.1514876038 -0.09699654579 -0.0019320639989971536 -0.00023434169849271034
0.1568090618 -0.09699654579 -0.001930195497800327 -0.00029965948108813734
0.1621305197 -0.09699654579 -0.001927778591410855 -0.0003633029751091491
0.1674519777 -0.09699654579 -0.0018967094805886315 -0.0004164992889796128
0.1727734357 -0.09699654579 -0.0018547381261355643 -0.0004666274967581036
0.1780948937 -0.09699654579 -0.0018118077338639782 -0.0005181371522754244
0.1834163517 -0.09699654579 -0.0017695705218966906 -0.0005690914987544791
0.1887378097 -0.09699654579 -0.0017294162648556857 -0.0006175246582191887
0.1940592676 -0.09699654579 -0.0016887731474845603 -0.0006659706708696392
0.1993807256 -0.09699654579 -0.001610240408715355 -0.000703727064580091
0.2047021836 -0.09699654579 -0.0015219402834452673 -0.0007384683376518157
0.2100236416 -0.09699654579 -0.001437580147962157 -0.0007707989138444788
0.2153450996 -0.09699654579 -0.0013527063322952121 -0.0008027716197826789
0.2206665576 -0.09699654579 -0.0012680965568682395 -0.0008347470514612248
0.2259880155 -0.09699654579 -0.0011832882269011498 -0.0008667753119196008
0.2313094735 -0.09699654579 -0.0010909058943392351 -0.0008380383493324107
0.2366309315 -0.09699654579 -0.0009973460041983427 -0.0007940031614397391
0.2419523895 -0.09699654579 -0.0009037601350701647 -0.0007499359270519056
0.2472738475 -0.09699654579 -0.0008113645872415198 -0.0007058688201345312
0.2525953054 -0.09699654579 -0.000720931571974559 -0.0006631236476533857
0.2579167783 -0.09699654579 -0.0006342240883133578 -0.0006210310140153677
0.2632382214 -0.09699654579 -0.0005926801604157069 -0.000542051370890404
0.2685596943 -0.09699654579 -0.0005608658876400635 -0.00045574482898262674
0.2738811374 -0.09699654579 -0.000528281759848451 -0.0003719567704384198
0.2792026103 -0.09699654579 -0.0004973476740883765 -0.00029207277983686847
0.2845240533 -0.09699654579 -0.0004672835304079613 -0.00021100752348740784
0.2898455262 -0.09699654579 -0.0004347410430455146 -0.00012884904250068212
0.2951669693 -0.09699654579 -0.00045159083844521953 -6.894856614101531e-05
0.3004884422 -0.09699654579 -0.0004722157674688637 -1.4195450422319223e-05
0.3058098853 -0.09699654579 -0.0004938531178898638 4.0570284108025794e-05
0.3111313581 -0.09699654579 -0.0005144268254991894 9.535956147902371e-05
0.3164528012 -0.09699654579 -0.0005346888768140092 0.00014923617678655143
0.3217742741 -0.09699654579 -0.000552323890406062 0.00019858297853909214
0.3270957172 -0.09699654579 -0.000583221749739201 0.00021311990358302557
0.3324171901 -0.09699654579 -0.0006147187892372822 0.00022762749731025224
0.3377386332 -0.09699654579 -0.000643995053376967 0.00024251059017677587
0.343060106 -0.09699654579 -0.0006723516432850032 0.0002576085824518156
0.3483815491 -0.09699654579 -0.0007002238332721167 0.00027253653051026455
0.353703022 -0.09699654579 -0.0007201974289629983 0.0002743606270100364
0.3590244651 -0.09699654579 -0.0007252068307039177 0.00025304520031483034
0.364345938 -0.09699654579 -0.0007288718866395391 0.00023479627007350808
0.369667381 -0.09699654579 -0.0007333984256356677 0.0002164584503313572
0.3749888539 -0.09699654579 -0.0007385981166288954 0.0001984956996705136
0.380310297 -0.09699654579 -0.0007427342163320984 0.00018213159130300247
0.3856317699 -0.09699654579 -0.0007184435307985106 0.0001683668798667928
0.390953213 -0.09699654579 -0.000686504041564835 0.00015349877115209478
0.3962746859 -0.09699654579 -0.0006537179931214986 0.00013861437218305443
0.4015961289 -0.09699654579 -0.000623218270217775 0.0001246069259358794
0.4069176018 -0.09699654579 -0.0005925174222280489 0.0001127435394384659
0.4122390449 -0.09699654579 -0.0005562137522689536 0.00010830516060412059
0.4175605178 -0.09699654579 -0.0005143752899438574 0.00011309815402257073
0.4228819609 -0.09699654579 -0.0004721726574511671 0.00011771055669489463
0.4282034338 -0.09699654579 -0.0004321453437602329 0.00012274930192513408
0.4335248768 -0.09699654579 -0.00039100559810110184 0.00012751896944210967
0.4388463497 -0.09699654579 -0.00035061647956929074 0.00013613853904030583
0.4441677928 -0.09699654579 -0.00031394980566905144 0.00015196084123787626
0.4494892657 -0.09699654579 -0.000277627862282614 0.00016718385130640815
0.4548107088 -0.09699654579 -0.00024160204333815934 0.00018213508053065817
0.4601321816 -0.09699654579 -0.0002054109465515254 0.00019740053039150963
0.4654536247 -0.09699654579 -0.00017552516253082953 0.0002121399250406416
0.4707750976 -0.09699654579 -0.00014997840020326811 0.00022844426886495968
0.4760965407 -0.09699654579 -0.0001244245467694908 0.0002444879396792368
0.4814180136 -0.09699654579 -9.900860619794609e-05 0.00026080397172573134
0.4867394567 -0.09699654579 -7.320996047482876e-05 0.00027584867726386547
0.4920609295 -0.09699654579 -5.288357316951923e-05 0.00028352790172586986
0.4973823726 -0.09699654579 -3.204161699287997e-05 0.00028940584657074635
0.5027038455 -0.09699654579 -1.2025176760512676e-05 0.0002961598433405177
0.5080252886 -0.09699654579 8.591278438599769e-06 0.0003018909754680118
0.5133467317 -0.09699654579 2.9881342854358633e-05 0.0003013835770939449
0.5186682343 -0.09699654579 5.3004833085825384e-05 0.0002944473844811733
0.5239896774 -0.09699654579 7.648492257604629e-05 0.0002883017889041215
0.5293111205 -0.09699654579 9.983979984901221e-05 0.0002818978222252308
0.5346325636 -0.09699654579 0.00012735140757498336 0.00026834610136555645
0.5399540663 -0.09699654579 0.00016187301511071445 0.00024937701705481785
0.5452755094 -0.09699654579 0.0001969315314241535 0.00023146909516271177
0.5505969524 -0.09699654579 0.00023075035933269676 0.00021249510965520822
0.5559183955 -0.09699654579 0.0002806332708073197 0.00018516044398043396
0.5612398982 -0.09699654579 0.000336105597030528 0.00016030298316444818
0.5665613413 -0.09699654579 0.0003921464959369295 0.00013513793315720753
0.5718827844 -0.09699654579 0.00045907241144823105 0.00010599364966670363
0.5772042274 -0.09699654579 0.0005402401413156125 8.380065525847835e-05
0.5825257301 -0.09699654579 0.0006215824039796922 6.141058649221925e-05
0.5878471732 -0.09699654579 0.0007141286484425054 3.988148341649177e-05
0.5931686163 -0.09699654579 0.000816734769372254 3.070805955110767e-05
0.5984900594 -0.09699654579 0.0009233776854539035 1.9725329718407818e-05
0.6038115621 -0.09699654579 0.0010391447229195906 2.061139339456299e-05
0.6091330051 -0.09699654579 0.0011637154287270468 2.7616088591767505e-05
0.6144544482 -0.09699654579 0.0012871350767608791 4.030856351612046e-05
0.6197758913 -0.09699654579 0.0014166333999278012 6.755062134958512e-05
0.625097394 -0.09699654579 0.0015476078259426208 9.845061768569668e-05
0.6304188371 -0.09699654579 0.00168109049498856 0.0001434836929856926
0.6357402802 -0.09699654579 0.0018177691245282975 0.00019373702234863591
0.6410617828 -0.09699654579 0.0019494452791151376 0.00025379795443477925
0.6463832259 -0.09699654579 0.002083267434528432 0.0003229282271757347
0.651704669 -0.09699654579 0.0022134893109459967 0.00039875780010345866
0.6570261121 -0.09699654579 0.002339736875572459 0.0004815880022651694
0.6623476148 -0.09699654579 0.002464210485731277 0.0005679655882317772
0.6676690578 -0.09699654579 0.002587097500941026 0.0006572664291558754
0.6729905009 -0.09699654579 0.002705869212788267 0.000751512178999618
0.678311944 -0.09699654579 0.0028231580663873675 0.0008459015092497622
0.6836334467 -0.09699654579 0.0029406979460963743 0.000939122194650429
0.6889548898 -0.09699654579 0.003054877241375157 0.0010311285675130687
0.6942763329 -0.09699654579 0.0031755201924353227 0.001121651094506155
0.6995977759 -0.09699654579 0.0033003331968532923 0.0012088085368133312
0.7049192786 -0.09699654579 0.003430309888073962 0.0012943078311407868
0.7102407217 -0.09699654579 0.00356985576057479 0.0013780856241647759
0.7155621648 -0.09699654579 0.0037251215943944933 0.0014602303593437773
0.7208836079 -0.09699654579 0.0038949283916417904 0.0015405767650091288
0.7262051105 -0.09699654579 0.004082861637910687 0.0016244083432929684
0.7315265536 -0.09699654579 0.004286269470671716 0.0017108232956020632
0.7368479967 -0.09699654579 0.004522664981757385 0.0018088829228655931
0.7421694398 -0.09699654579 0.004785318076320886 0.0019227181890696678
0.7474909425 -0.09699654579 0.005074866106447109 0.0020519513810368906
0.7528123856 -0.09699654579 0.005393106188646067 0.0022097197990213
0.7581338286 -0.09699654579 0.005740629052405158 0.0024005057792057757
-0.3008363545 -0.09367749095 -0.0009109665882691202 -0.00020660902937436903
-0.2955148816 -0.09367749095 -0.0009315487256019727 -0.0002280872017162103
-0.2901934385 -0.09367749095 -0.0009529014166963425 -0.0002539300659767875
-0.2848719656 -0.09367749095 -0.0009639575350762745 -0.00025024656846633426
-0.2795505226 -0.09367749095 -0.000954617416491922 -0.00024041705849840714
-0.2742290497 -0.09367749095 -0.0009331312333094255 -0.0002489291899158441
-0.2689076066 -0.09367749095 -0.0008944529057093431 -0.0002633580028315064
-0.2635861337 -0.09367749095 -0.000791986424078663 -0.0002705859331693086
-0.2582646906 -0.09367749095 -0.0007549326798259798 -0.00021978253887744144