VARIABLES = X,Y,phix,phiy
ZONE I=200,J=200,F=POINT 
-0.3008363545 -0.1003156006 2.994565399432966e-05 0.0005341489290503771
-0.2955148816 -0.1003156006 0.00010044843396703072 0.0005244148335623964
-0.2901934385 -0.1003156006 0.00017500385280414153 0.0005399624803680603
-0.2848719656 -0.1003156006 0.00024824478698855023 0.00055975562888123
-0.2795505226 -0.1003156006 0.0003274263399707611 0.0005891575769996506
-0.2742290497 -0.1003156006 0.00042697091932776944 0.0006237721234368524
-0.2689076066 -0.1003156006 0.000539589513132275 0.0006841445903557794
-0.2635861337 -0.1003156006 0.0005955588817175885 0.0007303488627510165
-0.2582646906 -0.1003156006 0.000623963489918534 0.0007769015581389222
-0.2529432178 -0.1003156006 0.0006553715145152452 0.000826949620327459
-0.2476217598 -0.1003156006 0.0006788418409468363 0.0008781334039367304
-0.2423003018 -0.1003156006 0.0006358730805870845 0.0009192394762979367
-0.2369788438 -0.1003156006 0.0005465949261086661 0.0009444530931409681
-0.2316573858 -0.1003156006 0.0004316010896023324 0.0009927507674272278
-0.2263359278 -0.1003156006 0.00030658221294652013 0.0010502030236006585
-0.2210144699 -0.1003156006 0.00024595722979320247 0.0010830476116808576
-0.2156930119 -0.1003156006 0.00017971231137581855 0.0011198793643052555
-0.2103715539 -0.1003156006 0.00010741494713652473 0.0011510889096093286
-0.2050500959 -0.1003156006 3.754671578383024e-05 0.0011276604267034425
-0.1997286379 -0.1003156006 -5.7043246971386974e-05 0.0010667198040181813
-0.19440718 -0.1003156006 -0.00014535308206059012 0.0009849816701209618
-0.189085722 -0.1003156006 -0.00020573953070139107 0.0008767391642331295
-0.183764264 -0.1003156006 -0.00026564437006730644 0.0007591157285229647
-0.178442806 -0.1003156006 -0.00032845807723529217 0.0006434363198740975
-0.173121348 -0.1003156006 -0.0003038220216280784 0.0005446361006046608
-0.16779989 -0.1003156006 -0.0002595606537617325 0.0004468761210802784
-0.1624784321 -0.1003156006 -0.000211003422737501 0.00035231294736234013
-0.1571569741 -0.1003156006 -0.00015542903328477124 0.00028153485594233996
-0.1518355161 -0.1003156006 -8.301618946300803e-05 0.0002157489347794946
-0.1465140581 -0.1003156006 -5.100903680454061e-06 0.00014766110274257714
-0.1411926001 -0.1003156006 7.023075597551234e-05 9.44618165228659e-05
-0.1358711421 -0.1003156006 0.00013572952707605927 7.383995652581122e-05
-0.1305496842 -0.1003156006 0.00020206005772100324 5.3176999722206894e-05
-0.1252282262 -0.1003156006 0.0002723576858857645 3.69075299222277e-05
-0.1199067682 -0.1003156006 0.0003310329019297341 3.0580749248851e-05
-0.1145853102 -0.1003156006 0.0003859723640198154 2.6000148330819953e-05
-0.1092638522 -0.1003156006 0.00044271404233416897 2.1926407135369004e-05
-0.1039423943 -0.1003156006 0.000498412029442323 1.8065416689110294e-05
-0.09862093627 -0.1003156006 0.0005518418697515574 2.273744851427531e-06
-0.09329947084 -0.1003156006 0.0006066016086687019 -1.1534810005391848e-05
-0.08797801286 -0.1003156006 0.0006612579301704952 -2.533243971190344e-05
-0.08265655488 -0.1003156006 0.0007169033752305002 -3.866200010999967e-05
-0.0773350969 -0.1003156006 0.0007641940596405967 -3.859361384777322e-05
-0.07201363891 -0.1003156006 0.0008119321967202122 -3.833696351803954e-05
-0.06669218093 -0.1003156006 0.0008590552544408477 -3.807190757784536e-05
-0.06137072667 -0.1003156006 0.0009042244050622298 -3.637902474766988e-05
-0.05604926869 -0.1003156006 0.0009431217228536346 -2.7614510733226622e-05
-0.05072781071 -0.1003156006 0.0009804379103529365 -1.7499508293272198e-05
-0.045406349 -0.1003156006 0.0010177499338014143 -7.1641838459331725e-06
-0.04008489102 -0.1003156006 0.001054844045596057 2.8783199958742835e-06
-0.03476343304 -0.1003156006 0.0010906724711949609 1.0243605984594696e-05
-0.02944197692 -0.1003156006 0.0011275646337067196 1.1445990336371845e-05
-0.02412051894 -0.1003156006 0.0011632384536955582 1.2764178321262452e-05
-0.01879905909 -0.1003156006 0.0011990967760134523 1.41053928232168e-05
-0.01347760204 -0.1003156006 0.0012349862542894213 1.5434352753843556e-05
-0.00815614406 -0.1003156006 0.0012707518430293426 1.9696420909104563e-05
-0.00283468538 -0.1003156006 0.0013062977631746924 2.6184157042951653e-05
0.002486772602 -0.1003156006 0.0013423377707015396 3.2902971528827274e-05
0.007808230817 -0.1003156006 0.001378814411117479 3.971151423647093e-05
0.0131296888 -0.1003156006 0.0014141828680100635 4.622369069471553e-05
0.01845114678 -0.1003156006 0.0014468856029551432 6.49535923712944e-05
0.02377260476 -0.1003156006 0.001474733214459167 9.375535123096633e-05
0.02909406275 -0.1003156006 0.001504561422849565 0.00012395087753522838
0.03441552073 -0.1003156006 0.0015332780186792262 0.0001541524776951351
0.03973697871 -0.1003156006 0.001561974486285565 0.00018312879791751837
0.04505843669 -0.1003156006 0.0015766193641978139 0.00021020522720754017
0.05037989467 -0.1003156006 0.0015723997916008076 0.0002338365743692139
0.05570135266 -0.1003156006 0.001567097790131159 0.00025838531318284275
0.06102281436 -0.1003156006 0.0015621001343986457 0.00028286517874404
0.06634426862 -0.1003156006 0.0015577465366099035 0.00030662705992200466
0.0716657266 -0.1003156006 0.0015537392164802254 0.0003300311898475308
0.07698718458 -0.1003156006 0.0015529453553401065 0.00033613049289736623
0.08230864257 -0.1003156006 0.0015520581188880201 0.000340571413964332
0.08763010055 -0.1003156006 0.001550779915322727 0.00034473096312985025
0.09295155853 -0.1003156006 0.0015491165396755453 0.00034926650981699373
0.09827301651 -0.1003156006 0.0015486595348712484 0.0003539651520945188
0.1035944745 -0.1003156006 0.0015481928181249956 0.0003602016062233895
0.1089159325 -0.1003156006 0.0015533673459258849 0.00036866826669119853
0.1142373979 -0.1003156006 0.001557649683253607 0.00037715871689356165
0.1195588559 -0.1003156006 0.0015621921140855262 0.00038524730653693024
0.1248803139 -0.1003156006 0.0015663122454589557 0.00039374043566744863
0.1302017719 -0.1003156006 0.0015713447898534503 0.0004019104338172563
0.1355232298 -0.1003156006 0.0015627948280209974 0.0004149131585636173
0.1408446878 -0.1003156006 0.001546104263323923 0.00043176947150386783
0.1461661458 -0.1003156006 0.001529512407676449 0.0004470424736204099
0.1514876038 -0.1003156006 0.001513659558926947 0.00046234666487267345
0.1568090618 -0.1003156006 0.0014975090397278787 0.00047763953299180794
0.1621305197 -0.1003156006 0.001481728891197343 0.0004929246706085988
0.1674519777 -0.1003156006 0.0014580008263888212 0.00048608980786649586
0.1727734357 -0.1003156006 0.001429681036958009 0.0004711755948148306
0.1780948937 -0.1003156006 0.0014020988909792219 0.0004563052430912715
0.1834163517 -0.1003156006 0.0013743776826306026 0.0004413749069110732
0.1887378097 -0.1003156006 0.0013480363195049138 0.0004263840630805121
0.1940592676 -0.1003156006 0.0013227696089895787 0.00041240642276551897
0.1993807256 -0.1003156006 0.00132542259228622 0.00038094433235772536
0.2047021836 -0.1003156006 0.0013353674608813254 0.0003433789730878538
0.2100236416 -0.1003156006 0.0013463352489762736 0.00030599898465527407
0.2153450996 -0.1003156006 0.001357515246085006 0.000272405356822181
0.2206665576 -0.1003156006 0.00136680706830214 0.00023738829081537723
0.2259880155 -0.1003156006 0.001377010568100799 0.00020232074587262362
0.2313094735 -0.1003156006 0.001411261280908167 0.00019326052847880426
0.2366309315 -0.1003156006 0.0014489737679883254 0.00019226304753297568
0.2419523895 -0.1003156006 0.0014848030150260351 0.00019097266490343732
0.2472738475 -0.1003156006 0.0015215743160850077 0.00018946723496604835
0.2525953054 -0.1003156006 0.0015593139836714218 0.00018732786383795252
0.2579167783 -0.1003156006 0.0015943738687459888 0.00018583635844972182
0.2632382214 -0.1003156006 0.0016144101931810395 0.00021287151053480627
0.2685596943 -0.1003156006 0.0016317167521431631 0.00024802447998949125
0.2738811374 -0.1003156006 0.0016491765605534932 0.00028435359893643424
0.2792026103 -0.1003156006 0.0016665234506501 0.0003195839777318392
0.2845240533 -0.1003156006 0.0016806282684616927 0.0003522118427529072
0.2898455262 -0.1003156006 0.0016958886646450321 0.00038483308922723916
0.2951669693 -0.1003156006 0.0016728952629598123 0.0004138636754085963
0.3004884422 -0.1003156006 0.0016437967495647118 0.00044194879093587225
0.3058098853 -0.1003156006 0.0016175406416356294 0.0004670388769415
0.3111313581 -0.1003156006 0.0015897831370305475 0.0004921287338501276
0.3164528012 -0.1003156006 0.0015633074484490857 0.0005172492009408513
0.3217742741 -0.1003156006 0.001536110770629584 0.0005415422381922708
0.3270957172 -0.1003156006 0.0014969297267881845 0.0005320351747321323
0.3324171901 -0.1003156006 0.0014568096520475968 0.0005226103839594284
0.3377386332 -0.1003156006 0.001416899249796447 0.0005132017527169172
0.343060106 -0.1003156006 0.0013780212697175663 0.000503818502155716
0.3483815491 -0.1003156006 0.0013411809138361983 0.0004949327682566387
0.353703022 -0.1003156006 0.001311611269126889 0.0004816853899038168
0.3590244651 -0.1003156006 0.0012954919167240471 0.00045729566473881166
0.364345938 -0.1003156006 0.0012794053584100928 0.0004329310794204694
0.369667381 -0.1003156006 0.001264233726482265 0.00041053469443203515
0.3749888539 -0.1003156006 0.0012494973956578177 0.0003875917484162211
0.380310297 -0.1003156006 0.001233875718742412 0.00036451026852172565
0.3856317699 -0.1003156006 0.0012310762322666616 0.00034382396613417423
0.390953213 -0.1003156006 0.0012323449273279308 0.00032594930592858115
0.3962746859 -0.1003156006 0.0012333568456316336 0.0003074877984008496
0.4015961289 -0.1003156006 0.0012331948926209261 0.00028892637049654155
0.4069176018 -0.1003156006 0.001235452496027289 0.0002705464046721415
0.4122390449 -0.1003156006 0.0012375784685643267 0.00025912243958638864
0.4175605178 -0.1003156006 0.001245689479912202 0.0002562255740770466
0.4228819609 -0.1003156006 0.0012561492030440321 0.00025241278232623156
0.4282034338 -0.1003156006 0.0012651334165852883 0.0002491803548004596
0.4335248768 -0.1003156006 0.0012716621838354154 0.0002455349915290325
0.4388463497 -0.1003156006 0.001274156272478384 0.0002464847636079808
0.4441677928 -0.1003156006 0.001269964800592254 0.00026252527912454937
0.4494892657 -0.1003156006 0.0012634940371387083 0.00027790383669378915
0.4548107088 -0.1003156006 0.001255627744335571 0.00029101960583154075
0.4601321816 -0.1003156006 0.0012499549165251684 0.00030558269151548896
0.4654536247 -0.1003156006 0.0012342268238003694 0.00032030212869620583
0.4707750976 -0.1003156006 0.0012018557927089605 0.00033439595289891816
0.4760965407 -0.1003156006 0.0011708525876016937 0.0003464581103995752
0.4814180136 -0.1003156006 0.0011404452058903396 0.0003585894290206489
0.4867394567 -0.1003156006 0.0011095273464616176 0.0003706475238670915
0.4920609295 -0.1003156006 0.0010648975820365281 0.0003718662724591417
0.4973823726 -0.1003156006 0.001016452980269917 0.00036981478631809716
0.5027038455 -0.1003156006 0.0009694109859698475 0.0003680818076705366
0.5080252886 -0.1003156006 0.0009240189833584935 0.00036625633864364077
0.5133467317 -0.1003156006 0.0008773687681795551 0.0003546041555682539
0.5186682343 -0.1003156006 0.0008247181823527111 0.0003336736697777882
0.5239896774 -0.1003156006 0.0007716693922154731 0.00031276678013647725
0.5293111205 -0.1003156006 0.0007202510496949409 0.00029172600061054104
0.5346325636 -0.1003156006 0.0006719212229510691 0.00026321847737430844
0.5399540663 -0.1003156006 0.0006241631181371274 0.0002247477393353753
0.5452755094 -0.1003156006 0.0005728512707040806 0.0001859733751739502
0.5505969524 -0.1003156006 0.0005258566272772833 0.0001479311607869174
0.5559183955 -0.1003156006 0.0004847643727325703 0.00010121857257676936
0.5612398982 -0.1003156006 0.00044062333178527635 4.940482157203003e-05
0.5665613413 -0.1003156006 0.0003980998327428211 -2.101449442674074e-06
0.5718827844 -0.1003156006 0.00036061758387310674 -5.4316996143056375e-05
0.5772042274 -0.1003156006 0.00032503471121475374 -0.00011153231834069835
0.5825257301 -0.1003156006 0.0002884558030831818 -0.00016895294840371593
0.5878471732 -0.1003156006 0.0002555894209698644 -0.00022729817987690617
0.5931686163 -0.1003156006 0.00022541315924136116 -0.00028845941472007525
0.5984900594 -0.1003156006 0.0001953909503290272 -0.00034987313826827314
0.6038115621 -0.1003156006 0.00016619037720628512 -0.0004154333872785817
0.6091330051 -0.1003156006 0.0001381775261388671 -0.00048149941392465636
0.6144544482 -0.1003156006 0.00010939557634419297 -0.0005500751860948433
0.6197758913 -0.1003156006 8.129621064433321e-05 -0.0006197712198565405
0.625097394 -0.1003156006 5.318349181782917e-05 -0.0006917413842764214
0.6304188371 -0.1003156006 2.2294383507427045e-05 -0.0007666895361569347
0.6357402802 -0.1003156006 -5.382517362258126e-06 -0.0008430759852523905
0.6410617828 -0.1003156006 -3.2831288188904535e-05 -0.000922705007772543
0.6463832259 -0.1003156006 -6.265713509255163e-05 -0.001004639591466352
0.651704669 -0.1003156006 -9.393366366436763e-05 -0.001089295992223966
0.6570261121 -0.1003156006 -0.00012433281687163625 -0.0011798082311211345
0.6623476148 -0.1003156006 -0.00015681750090284165 -0.001275666430230893
0.6676690578 -0.1003156006 -0.0001900695917409045 -0.001375928513771769
0.6729905009 -0.1003156006 -0.0002218287948372798 -0.0014851649246334572
0.678311944 -0.1003156006 -0.00025132802626316004 -0.001599469365123442
0.6836334467 -0.1003156006 -0.00028123989261787525 -0.0017203298228551153
0.6889548898 -0.1003156006 -0.0003094947736144434 -0.001852157303709385
0.6942763329 -0.1003156006 -0.00033563778680155415 -0.001992869803527447
0.6995977759 -0.1003156006 -0.000356396281563412 -0.0021431912690347177
0.7049192786 -0.1003156006 -0.0003727462125168758 -0.002300957393254092
0.7102407217 -0.1003156006 -0.000380537733184196 -0.002471009799547199
0.7155621648 -0.1003156006 -0.00037992485638278117 -0.002650878534340841
0.7208836079 -0.1003156006 -0.0003710823242083757 -0.0028400426657451882
0.7262051105 -0.1003156006 -0.00035308551445988707 -0.003039819506760276
0.7315265536 -0.1003156006 -0.00032064885490384914 -0.003249782619868113
0.7368479967 -0.1003156006 -0.0002685060354826236 -0.0034731336871709297
0.7421694398 -0.1003156006 -0.00020236301067608325 -0.003705636576820718
0.7474909425 -0.1003156006 -0.0001209532679014033 -0.003936294925887658
0.7528123856 -0.1003156006 -1.3650063557590312e-05 -0.004177897416351025
0.7581338286 -0.1003156006 0.00011484730970295895 -0.004425008009742779
-0.3008363545 -0.09699654579 5.323794078729669e-05 0.0005036724993002825
-0.2955148816 -0.09699654579 0.00010877282016632394 0.0004838661660595354
-0.2901934385 -0.09699654579 0.00017342560682900504 0.0004884518351883763
-0.2848719656 -0.09699654579 0.00024893770411827765 0.0005128753303025705
-0.2795505226 -0.09699654579 0.00032069635128881144 0.0005418727998485774
-0.2742290497 -0.09699654579 0.0004141907734635302 0.0005826811177518065
-0.2689076066 -0.09699654579 0.0005389520253957458 0.0006566135649355994
-0.2635861337 -0.09699654579 0.0006393702021376824 0.0007330287108764112
-0.2582646906 -0.09699654579 0.0006606846615389288 0.0007826408510966955
-0.2529432178 -0.09699654579 0.0006863040355131763 0.0008319077536671149
-0.2476217598 -0.09699654579 0.0007004738853193088 0.0008843198187980705
-0.2423003018 -0.09699654579 0.0006881693273437304 0.000936759814090459
-0.2369788438 -0.09699654579 0.0005925746536556318 0.0009750163753612838
-0.2316573858 -0.09699654579 0.0004615096221307288 0.0010315909836246672
-0.2263359278 -0.09699654579 0.00030728910567697355 0.0011184013560537507
-0.2210144699 -0.09699654579 0.00023055920727038692 0.001165049010016727
-0.2156930119 -0.09699654579 0.00015775366218910968 0.0011982573793733965
-0.2103715539 -0.09699654579 4.386007428044819e-05 0.0011981399981446962
-0.2050500959 -0.09699654579 -5.9488199609666805e-05 0.001148360097618208
-0.1997286379 -0.09699654579 -0.00014800182422140316 0.0010657896367175592
-0.19440718 -0.09699654579 -0.0002351384090644342 0.0009833699337565866
-0.189085722 -0.09699654579 -0.00031071603463271943 0.000867976519160386
-0.183764264 -0.09699654579 -0.0003779160859105518 0.0007527408858044949
-0.178442806 -0.09699654579 -0.0004370904989841008 0.000636452187578842
-0.173121348 -0.09699654579 -0.00042158616668566494 0.0005362512238008355
-0.16779989 -0.09699654579 -0.00036716085329928307 0.0004434265562877458
-0.1624784321 -0.09699654579 -0.00030043275530195076 0.0003407304397768492
-0.1571569741 -0.09699654579 -0.0002172783606624446 0.0002404545238407998
-0.1518355161 -0.09699654579 -0.00012762151701055477 0.00016573754184373427
-0.1465140581 -0.09699654579 -3.6002758281332505e-05 9.403800455171733e-05
-0.1411926001 -0.09699654579 5.10165789244051e-05 3.871185901988648e-05
-0.1358711421 -0.09699654579 0.0001227980189815273 2.3377312616529465e-05
-0.1305496842 -0.09699654579 0.0001980280373305705 1.1221167404557318e-05
-0.1252282262 -0.09699654579 0.0002792740843329407 -1.3045588611081512e-06
-0.1199067682 -0.09699654579 0.0003512068794664303 -8.302759121462757e-06
-0.1145853102 -0.09699654579 0.0004171173620210062 -1.3739832499060856e-05
-0.1092638522 -0.09699654579 0.0004836905963897821 -1.9131719253309215e-05
-0.1039423943 -0.09699654579 0.0005517643374823524 -2.3616748595073912e-05
-0.09862093627 -0.09699654579 0.0006122355427901583 -3.727471631889845e-05
-0.09329947084 -0.09699654579 0.0006729400493492748 -4.992956385308904e-05
-0.08797801286 -0.09699654579 0.000732064245548672 -6.137206417525164e-05
-0.08265655488 -0.09699654579 0.0007918200678458979 -7.303463707691198e-05
-0.0773350969 -0.09699654579 0.0008376745981906155 -7.122388568164779e-05
-0.07201363891 -0.09699654579 0.0008803905409178091 -6.769958636738408e-05
-0.06669218093 -0.09699654579 0.0009245404397427312 -6.425672297661308e-05
-0.06137072667 -0.09699654579 0.0009691229487140179 -6.155279828468882e-05
-0.05604926869 -0.09699654579 0.0010063281326312915 -5.280227833505399e-05
-0.05072781071 -0.09699654579 0.0010438118039122891 -4.333592917131237e-05
-0.045406349 -0.09699654579 0.0010808226893500147 -3.385882340071966e-05
-0.04008489102 -0.09699654579 0.001117126937582533 -2.3709025586570182e-05
-0.03476343304 -0.09699654579 0.0011524550410431972 -1.548649507606224e-05
-0.02944197692 -0.09699654579 0.001186808757404468 -1.3454520145951339e-05
-0.02412051894 -0.09699654579 0.0012217683766220602 -1.1600677168491195e-05
-0.01879905909 -0.09699654579 0.0012561417107713382 -9.662731225650187e-06
-0.01347760204 -0.09699654579 0.001290660088457111 -7.546201080768338e-06
-0.00815614406 -0.09699654579 0.0013254419859709164 -2.819588319778728e-06
-0.00283468538 -0.09699654579 0.0013616999972260553 3.866236300252138e-06
0.002486772602 -0.09699654579 0.0013979389047046433 1.0486554282094282e-05
0.007808230817 -0.09699654579 0.001433940132405485 1.6912926213707734e-05
0.0131296888 -0.09699654579 0.0014700465071377001 2.356019104782935e-05
0.01845114678 -0.09699654579 0.001501794885413254 4.465755624038388e-05
0.02377260476 -0.09699654579 0.00153113935160027 7.675683648768121e-05
0.02909406275 -0.09699654579 0.0015592934134969097 0.00011018333960922903
0.03441552073 -0.09699654579 0.001588427548440336 0.00014378260690648783
0.03973697871 -0.09699654579 0.0016172158613009333 0.00017605168572868806
0.04505843669 -0.09699654579 0.0016294914964663399 0.00020616847995881473
0.05037989467 -0.09699654579 0.0016214753280300708 0.000231860909100654
0.05570135266 -0.09699654579 0.0016137822203418897 0.0002579292735712081
0.06102281436 -0.09699654579 0.0016033233504901237 0.0002843627950443626
0.06634426862 -0.09699654579 0.0015958432131630241 0.0003097628279395355
0.0716657266 -0.09699654579 0.0015885131839763525 0.0003352020910645986
0.07698718458 -0.09699654579 0.0015862003317898556 0.0003395775517949581
0.08230864257 -0.09699654579 0.0015833393973763675 0.0003424080688446907
0.08763010055 -0.09699654579 0.0015810657084233553 0.000345629026930861
0.09295155853 -0.09699654579 0.0015790387032100835 0.0003489819664972768
0.09827301651 -0.09699654579 0.001576749667702015 0.00035212553636153777
0.1035944745 -0.09699654579 0.001576203549200739 0.0003575228723450936
0.1089159325 -0.09699654579 0.001583018744980191 0.00036645218493326496
0.1142373979 -0.09699654579 0.001590252485269036 0.0003758820958008896
0.1195588559 -0.09699654579 0.0015965125609828591 0.0003849007072347466
0.1248803139 -0.09699654579 0.0016029360476396443 0.0003939771777501617
0.1302017719 -0.09699654579 0.0016096351272526924 0.0004035868333326499
0.1355232298 -0.09699654579 0.0016010503304595594 0.00041925687784261084
0.1408446878 -0.09699654579 0.001584452283630189 0.00043816114106761165
0.1461661458 -0.09699654579 0.0015688620948768935 0.00045672746880431533
0.1514876038 -0.09699654579 0.0015512210798210334 0.0004753059516829597
0.1568090618 -0.09699654579 0.0015329417192326512 0.0004938664442239835
0.1621305197 -0.09699654579 0.0015156876786911353 0.0005114288727401823
0.1674519777 -0.09699654579 0.0014871953615607646 0.0005023650192641695
0.1727734357 -0.09699654579 0.0014554100070647555 0.00048458332180593755
0.1780948937 -0.09699654579 0.001421553171010584 0.00046573960809688416
0.1834163517 -0.09699654579 0.001388393881555155 0.00044701250974743496
0.1887378097 -0.09699654579 0.0013584682054763202 0.00043093573200525076
0.1940592676 -0.09699654579 0.0013286581526677065 0.0004149088594765604
0.1993807256 -0.09699654579 0.0013314084663930059 0.00037759433992681806
0.2047021836 -0.09699654579 0.001342574009732748 0.00033412454156531607
0.2100236416 -0.09699654579 0.0013547133637563436 0.0002950751747320151
0.2153450996 -0.09699654579 0.001365663838920688 0.0002564304135706523
0.2206665576 -0.09699654579 0.001376794415685703 0.00021777591525378324
0.2259880155 -0.09699654579 0.0013875719318800208 0.00017901643663919962
0.2313094735 -0.09699654579 0.0014253435860705856 0.00017104200405947007
0.2366309315 -0.09699654579 0.0014697021985105537 0.0001697028526626438
0.2419523895 -0.09699654579 0.0015141658432213563 0.00016841436439412875
0.2472738475 -0.09699654579 0.001557558870937931 0.0001670609406429689
0.2525953054 -0.09699654579 0.0015988234099216325 0.00016613182237957427
0.2579167783 -0.09699654579 0.0016372559683907634 0.0001648502119198023
0.2632382214 -0.09699654579 0.001659679230234924 0.00019862098826696253
0.2685596943 -0.09699654579 0.0016789835646579166 0.00024020632323039094
0.2738811374 -0.09699654579 0.001697891573257927 0.00027946277325510926
0.2792026103 -0.09699654579 0.0017153135279490183 0.00031614127743020645
0.2845240533 -0.09699654579 0.0017320492601051037 0.0003532865764676378
0.2898455262 -0.09699654579 0.0017494528240239544 0.00039176606521846316
0.2951669693 -0.09699654579 0.0017223832161145408 0.0004240240948526456
0.3004884422 -0.09699654579 0.0016924531421916053 0.0004536907618723646
0.3058098853 -0.09699654579 0.0016629811553414036 0.00048364702526487393
0.3111313581 -0.09699654579 0.0016336010940345364 0.0005135881083861491
0.3164528012 -0.09699654579 0.0016044171548950561 0.0005421747853736089
0.3217742741 -0.09699654579 0.001575614031372612 0.000566546168075318
0.3270957172 -0.09699654579 0.0015308964917886561 0.0005554348080147155
0.3324171901 -0.09699654579 0.0014880365704049998 0.0005443899292859953
0.3377386332 -0.09699654579 0.0014456155489928927 0.0005332863957801041
0.343060106 -0.09699654579 0.0014040054204069786 0.0005228418107682577
0.3483815491 -0.09699654579 0.0013624088990974456 0.0005124788008208633
0.353703022 -0.09699654579 0.0013297328232461786 0.0004964288844944802
0.3590244651 -0.09699654579 0.001314423195516956 0.00046913097775454107
0.364345938 -0.09699654579 0.001298378346962547 0.00044361298669106134
0.369667381 -0.09699654579 0.001281782554801103 0.0004183889543331525
0.3749888539 -0.09699654579 0.0012675713471232265 0.00039300969891423225
0.380310297 -0.09699654579 0.0012522471180824585 0.00036862050167866254
0.3856317699 -0.09699654579 0.0012510835196018848 0.00034776459891628866
0.390953213 -0.09699654579 0.0012554090338593195 0.0003274659854496948
0.3962746859 -0.09699654579 0.001259614992371198 0.00030560290608846064
0.4015961289 -0.09699654579 0.0012623997668519814 0.000286039912747323
0.4069176018 -0.09699654579 0.0012638779580344726 0.0002664815905960266
0.4122390449 -0.09699654579 0.0012687225561315836 0.0002539682228378018
0.4175605178 -0.09699654579 0.0012818301246502327 0.00025090650155762184
0.4228819609 -0.09699654579 0.0012905280465591216 0.000248663088388568
0.4282034338 -0.09699654579 0.00129861304598957 0.00024533716645647495
0.4335248768 -0.09699654579 0.0013066693875091388 0.00024268463288802338
0.4388463497 -0.09699654579 0.0013120586974049804 0.0002468540484724292
0.4441677928 -0.09699654579 0.0013047339915286957 0.00026501789907619044
0.4494892657 -0.09699654579 0.001299282775243214 0.00028279027488800976
0.4548107088 -0.09699654579 0.0012951747234597455 0.0003007384612764705
0.4601321816 -0.09699654579 0.001288618304281717 0.0003180937408236029
0.4654536247 -0.09699654579 0.0012719642785574965 0.00033282196914594797
0.4707750976 -0.09699654579 0.00123932115194464 0.00034875045272039795
0.4760965407 -0.09699654579 0.0012061103917137739 0.00036705388242236114
0.4814180136 -0.09699654579 0.0011738387649734114 0.000382983367798274
0.4867394567 -0.09699654579 0.0011415358612572812 0.00039746409679416604
0.4920609295 -0.09699654579 0.0010938268438072292 0.00040048496143047256
0.4973823726 -0.09699654579 0.0010417691640293466 0.00040062020137727425
0.5027038455 -0.09699654579 0.0009917728657091558 0.0003989026192276585
0.5080252886 -0.09699654579 0.0009412914047016068 0.0003981904312331941
0.5133467317 -0.09699654579 0.0008861076040262107 0.00038831056598741774
0.5186682343 -0.09699654579 0.0008290415012174411 0.0003671307152988534
0.5239896774 -0.09699654579 0.0007744968829785831 0.00034583300610438965
0.5293111205 -0.09699654579 0.0007186654012820224 0.0003246376439136141
0.5346325636 -0.09699654579 0.0006617684201226212 0.0002951546562892482
0.5399540663 -0.09699654579 0.0006094301020213425 0.0002555063141504819
0.5452755094 -0.09699654579 0.0005597028497276326 0.00021661467874750648
0.5505969524 -0.09699654579 0.0005067776776784367 0.00017694274005983316
0.5559183955 -0.09699654579 0.00045902608856389 0.00012734395418201525
0.5612398982 -0.09699654579 0.00041591129193777515 7.559613021560022e-05
0.5665613413 -0.09699654579 0.00037183732867814045 2.3734692690569035e-05
0.5718827844 -0.09699654579 0.0003291552634629187 -3.1619575920541403e-05
0.5772042274 -0.09699654579 0.0002927891892525698 -8.912420108311946e-05
0.5825257301 -0.09699654579 0.000257982089501067 -0.00014663374674637208
0.5878471732 -0.09699654579 0.0002211147431744953 -0.00020674265559972538
0.5931686163 -0.09699654579 0.00018981166326189367 -0.000268541499404811
0.5984900594 -0.09699654579 0.00015651091500216895 -0.0003312719908319079
0.6038115621 -0.09699654579 0.0001256271459392542 -0.0003967539557805711
0.6091330051 -0.09699654579 9.357661844568285e-05 -0.00046403924558600153
0.6144544482 -0.09699654579 6.380358386321087e-05 -0.0005320807789223257
0.6197758913 -0.09699654579 3.392175689786593e-05 -0.0006027872674811556
0.625097394 -0.09699654579 4.365016224261411e-06 -0.0006742568907423617
0.6304188371 -0.09699654579 -2.4799591739305326e-05 -0.0007492004044435469
0.6357402802 -0.09699654579 -5.532836331081558e-05 -0.0008246574343929295
0.6410617828 -0.09699654579 -8.498538282865231e-05 -0.0009025025255449339
0.6463832259 -0.09699654579 -0.00011751974470148262 -0.0009845232534629312
0.651704669 -0.09699654579 -0.00015260989608117226 -0.0010687439147623434
0.6570261121 -0.09699654579 -0.00018778678015212273 -0.0011601710128019247
0.6623476148 -0.09699654579 -0.00022282036776911435 -0.0012554943006682002
0.6676690578 -0.09699654579 -0.0002589374726411214 -0.0013570639968663457
0.6729905009 -0.09699654579 -0.00029397113365086747 -0.0014647397144167869
0.678311944 -0.09699654579 -0.0003300287303416477 -0.001578784383781061
0.6836334467 -0.09699654579 -0.00036570955356357603 -0.0016996476738293954
0.6889548898 -0.09699654579 -0.00039942691872892874 -0.0018316377520421572
0.6942763329 -0.09699654579 -0.00043111379287948955 -0.0019752887054915445
0.6995977759 -0.09699654579 -0.00046023236192174706 -0.0021280276131212857
0.7049192786 -0.09699654579 -0.00048114348754785643 -0.0022896024576465083
0.7102407217 -0.09699654579 -0.0004957912809239895 -0.002463029430364189
0.7155621648 -0.09699654579 -0.0005011344062917131 -0.002649291223708065
0.7208836079 -0.09699654579 -0.0005004161353083176 -0.0028482693742545922
0.7262051105 -0.09699654579 -0.0004861580829486746 -0.0030578555751911733
0.7315265536 -0.09699654579 -0.0004599358241194299 -0.0032748439388112943
0.7368479967 -0.09699654579 -0.0004194703164178036 -0.0035068992715101485
0.7421694398 -0.09699654579 -0.0003567571558771593 -0.003747904727385344
0.7474909425 -0.09699654579 -0.00027782868589002927 -0.003998075856784633
0.7528123856 -0.09699654579 -0.00017212776792038201 -0.004253087159142792
0.7581338286 -0.09699654579 -4.3818054860872714e-05 -0.00451181641856878
-0.3008363545 -0.09367749095 7.500538882409928e-05 0.00047162847669337903
-0.2955148816 -0.09367749095 0.00012146365180573046 0.0004553654524518379
-0.2901934385 -0.09367749095 0.00017114730063701533 0.0004427472291618654
-0.2848719656 -0.09367749095 0.00023269785067025535 0.00046245724541102884
-0.2795505226 -0.09367749095 0.00030609735472293 0.000494231975124179
-0.2742290497 -0.09367749095 0.0004054023653933037 0.0005461003848889606
-0.2689076066 -0.09367749095 0.0005203602854456626 0.0006143772153847774
-0.2635861337 -0.09367749095 0.0006449373329522999 0.0007206051008665599
-0.2582646906 -0.09367749095 0.0006948963881697062 0.0007873450553984115
-0.2529432178 -0.09367749095 0.0007082733234224257 0.0008324974380405065
-0.2476217598 -0.09367749095 0.0007304747136829188 0.0008836706460068237
-0.2423003018 -0.09367749095 0.0007447651523417562 0.0009524047299206945