VARIABLES = X,Y,phix,phiy
ZONE I=200,J=200,F=POINT 
-0.3008363545 -0.1003156006 0.000161251112694545 0.0006865496837602603
-0.2955148816 -0.1003156006 0.00017477853469955774 0.0007025000830525572
-0.2901934385 -0.1003156006 0.00019484595588711905 0.0007334694819742914
-0.2848719656 -0.1003156006 0.00021361821640256189 0.0007676861917497117
-0.2795505226 -0.1003156006 0.00022581139427403334 0.0008058721910447884
-0.2742290497 -0.1003156006 0.00022079155058610809 0.0008396199965713422
-0.2689076066 -0.1003156006 0.0002188720035068832 0.0008773367156974191
-0.2635861337 -0.1003156006 0.00019975349806812843 0.0008639894781443121
-0.2582646906 -0.1003156006 0.00014151939875940204 0.0008367983799519974
-0.2529432178 -0.1003156006 4.453305415756284e-05 0.0008084603265247717
-0.2476217598 -0.1003156006 -8.57796960573865e-05 0.0007718920158373057
-0.2423003018 -0.1003156006 -0.000150312782851282 0.0007214041657257992
-0.2369788438 -0.1003156006 -0.00014362041642926356 0.0006540755770908286
-0.2316573858 -0.1003156006 -0.00012362416071447804 0.0005938361023125466
-0.2263359278 -0.1003156006 -0.00011729588509407828 0.0005368649156549515
-0.2210144699 -0.1003156006 -9.460926652621825e-05 0.0005155520977135132
-0.2156930119 -0.1003156006 -6.361984961677128e-05 0.0004985083006266492
-0.2103715539 -0.1003156006 -4.3185301908968536e-05 0.00047782347536453555
-0.2050500959 -0.1003156006 -4.475932045445405e-05 0.00042857122220712427
-0.1997286379 -0.1003156006 -3.948149550647079e-05 0.0003556749878113159
-0.19440718 -0.1003156006 -4.713010035450882e-05 0.00030019109229026804
-0.189085722 -0.1003156006 3.5495101670107978e-06 0.00024272749049896058
-0.183764264 -0.1003156006 6.187638808359239e-05 0.0001783723455399962
-0.178442806 -0.1003156006 0.00012231575557212246 0.00011544939592286238
-0.173121348 -0.1003156006 0.00017576258960290143 8.28835482026649e-05
-0.16779989 -0.1003156006 0.00022780269096584987 5.3800302389168555e-05
-0.1624784321 -0.1003156006 0.00028502790991384233 1.892884158668664e-05
-0.1571569741 -0.1003156006 0.00033168041840658563 6.999704616428792e-07
-0.1518355161 -0.1003156006 0.00037558877825801093 -1.211707201645619e-05
-0.1465140581 -0.1003156006 0.00042148389436115296 -2.6549960063184167e-05
-0.1411926001 -0.1003156006 0.00046807137440627066 -3.941742878824395e-05
-0.1358711421 -0.1003156006 0.0005119884425079631 -5.0416969714085424e-05
-0.1305496842 -0.1003156006 0.0005559319922175821 -6.140331094923791e-05
-0.1252282262 -0.1003156006 0.0006017343164538054 -7.166328462174467e-05
-0.1199067682 -0.1003156006 0.0006508897993337817 -8.180088754390503e-05
-0.1145853102 -0.1003156006 0.0007005931681799046 -9.22432931013412e-05
-0.1092638522 -0.1003156006 0.0007499622555311158 -0.00010225750341664783
-0.1039423943 -0.1003156006 0.0007995161028023255 -0.00011157086436321065
-0.09862093627 -0.1003156006 0.0008452234792775134 -0.00010763858986598432
-0.09329947084 -0.1003156006 0.0008910354638758016 -0.00010254134813450544
-0.08797801286 -0.1003156006 0.0009369274615168425 -9.745637734241747e-05
-0.08265655488 -0.1003156006 0.000981374068379143 -9.146084028954192e-05
-0.0773350969 -0.1003156006 0.0010126221046934845 -7.825781271583564e-05
-0.07201363891 -0.1003156006 0.0010436047387437583 -6.52425193945721e-05
-0.06669218093 -0.1003156006 0.0010743433028876828 -5.221581245445413e-05
-0.06137072667 -0.1003156006 0.0011047446246329042 -3.799279340587786e-05
-0.05604926869 -0.1003156006 0.001127492645770212 -2.5722251507535707e-05
-0.05072781071 -0.1003156006 0.0011488227321609353 -1.4280695098477063e-05
-0.045406349 -0.1003156006 0.0011696722744566775 -2.662405898349839e-06
-0.04008489102 -0.1003156006 0.001191087428499365 8.650614703274319e-06
-0.03476343304 -0.1003156006 0.0012115754878495037 2.0913741047645066e-05
-0.02944197692 -0.1003156006 0.0012330935813294832 3.461136178031659e-05
-0.02412051894 -0.1003156006 0.0012543496452045047 4.859255500917701e-05
-0.01879905909 -0.1003156006 0.0012765139414532263 6.292347502109484e-05
-0.01347760204 -0.1003156006 0.001298125412647895 7.685349244877778e-05
-0.00815614406 -0.1003156006 0.0013078283428522082 9.033196094475602e-05
-0.00283468538 -0.1003156006 0.0013090303844494572 0.00010312369555485514
0.002486772602 -0.1003156006 0.001307403174465166 0.00011800616739338238
0.007808230817 -0.1003156006 0.0013064988192862846 0.00013287465207681957
0.0131296888 -0.1003156006 0.001306362491762288 0.00014604739944176906
0.01845114678 -0.1003156006 0.0013031529094607649 0.00014221104395519481
0.02377260476 -0.1003156006 0.0012959425426350769 0.00012474178354651206
0.02909406275 -0.1003156006 0.0012872558098465721 0.00010607602603387227
0.03441552073 -0.1003156006 0.0012780814559114194 8.740425662430292e-05
0.03973697871 -0.1003156006 0.0012705571549409553 6.977847167659361e-05
0.04505843669 -0.1003156006 0.0012763734586821944 5.271250190977302e-05
0.05037989467 -0.1003156006 0.0013028417410867006 3.420305275049696e-05
0.05570135266 -0.1003156006 0.0013310795198750777 1.3982750146759106e-05
0.06102281436 -0.1003156006 0.0013588618374262328 -6.657268026932885e-06
0.06634426862 -0.1003156006 0.001386770046524887 -2.5745263421048048e-05
0.0716657266 -0.1003156006 0.0014134187245492414 -4.385376708808685e-05
0.07698718458 -0.1003156006 0.001454389639246007 -2.6102796293525528e-05
0.08230864257 -0.1003156006 0.0014961947975340422 -5.350582521763346e-06
0.08763010055 -0.1003156006 0.001540291971858833 1.6207033392396276e-05
0.09295155853 -0.1003156006 0.001582165736143466 3.6955834835664385e-05
0.09827301651 -0.1003156006 0.0016230785114583334 5.719265009585475e-05
0.1035944745 -0.1003156006 0.0016469283771263475 8.634139911858485e-05
0.1089159325 -0.1003156006 0.0016328577600726315 0.00013296719984369224
0.1142373979 -0.1003156006 0.0016180807616622624 0.0001796626208049326
0.1195588559 -0.1003156006 0.001606202042685841 0.00022123223678582028
0.1248803139 -0.1003156006 0.001592691530435078 0.00026471174658884326
0.1302017719 -0.1003156006 0.0015799582321859207 0.00030932886359507256
0.1355232298 -0.1003156006 0.0015398402392373188 0.0003228500518224302
0.1408446878 -0.1003156006 0.001481506118817013 0.0003128969173686911
0.1461661458 -0.1003156006 0.0014275895146835728 0.00030305922148797157
0.1514876038 -0.1003156006 0.0013742102708997237 0.000293183697636383
0.1568090618 -0.1003156006 0.0013204678036231213 0.0002833361603442833
0.1621305197 -0.1003156006 0.0012670208546034245 0.0002735632109649969
0.1674519777 -0.1003156006 0.0012505528777491941 0.00023194790626005198
0.1727734357 -0.1003156006 0.001249919366232884 0.00017536185894141728
0.1780948937 -0.1003156006 0.0012487800132017575 0.00011881122934477307
0.1834163517 -0.1003156006 0.0012481311147981436 6.222585883850786e-05
0.1887378097 -0.1003156006 0.0012472254819787271 7.621965460087952e-06
0.1940592676 -0.1003156006 0.0012470437687303946 -4.33995113085887e-05
0.1993807256 -0.1003156006 0.00128532347930458 -6.09903853012556e-05
0.2047021836 -0.1003156006 0.0013358734878805363 -6.755788453717083e-05
0.2100236416 -0.1003156006 0.0013860822761587706 -7.426079857769288e-05
0.2153450996 -0.1003156006 0.0014325076603370875 -8.107859371876659e-05
0.2206665576 -0.1003156006 0.0014800816139046071 -8.76519675209149e-05
0.2259880155 -0.1003156006 0.001527690171737177 -9.41321072876514e-05
0.2313094735 -0.1003156006 0.0015540487090528856 -6.439248258856803e-05
0.2366309315 -0.1003156006 0.0015730809257250794 -2.7359968992272428e-05
0.2419523895 -0.1003156006 0.001590930864965519 8.364327686838696e-06
0.2472738475 -0.1003156006 0.001609375093034989 4.4102822704256e-05
0.2525953054 -0.1003156006 0.00162641921296411 7.92862940934178e-05
0.2579167783 -0.1003156006 0.0016430297905853518 0.00011279773155114887
0.2632382214 -0.1003156006 0.001626671965101747 0.00013679381759348658
0.2685596943 -0.1003156006 0.0016019231525995874 0.00015887028354182996
0.2738811374 -0.1003156006 0.001576187284423546 0.00018125899347377965
0.2792026103 -0.1003156006 0.0015520389999920865 0.00020367820263223057
0.2845240533 -0.1003156006 0.0015291433824370024 0.00022433387087764873
0.2898455262 -0.1003156006 0.0015068462673323414 0.000245022898329621
0.2951669693 -0.1003156006 0.0014781116609038235 0.000248857985282551
0.3004884422 -0.1003156006 0.0014493444996501242 0.0002504477661183686
0.3058098853 -0.1003156006 0.0014227975500858215 0.0002517304393772573
0.3111313581 -0.1003156006 0.0013963236316906261 0.0002530355604951003
0.3164528012 -0.1003156006 0.0013700348180226442 0.0002542897076033889
0.3217742741 -0.1003156006 0.001342972496251107 0.0002552032027662765
0.3270957172 -0.1003156006 0.0013233488031912984 0.0002460899734722571
0.3324171901 -0.1003156006 0.001302584386677132 0.00023691375472943333
0.3377386332 -0.1003156006 0.0012839246034443137 0.0002278285523906173
0.343060106 -0.1003156006 0.0012624057923593967 0.0002187880684878391
0.3483815491 -0.1003156006 0.0012431561238524342 0.00021083364205585524
0.353703022 -0.1003156006 0.00122687785364648 0.00020344255543163224
0.3590244651 -0.1003156006 0.0012178043103128803 0.00019732884056495505
0.364345938 -0.1003156006 0.0012090519545811375 0.00019111701527449543
0.369667381 -0.1003156006 0.0011989511657840843 0.0001856795226944882
0.3749888539 -0.1003156006 0.001189124749636351 0.00017973174146830134
0.380310297 -0.1003156006 0.001179233013895718 0.00017410644255971654
0.3856317699 -0.1003156006 0.0011645419390429478 0.00018241831372582253
0.390953213 -0.1003156006 0.001145870316945361 0.0001923404701212787
0.3962746859 -0.1003156006 0.0011275033428618524 0.00020223475242179748
0.4015961289 -0.1003156006 0.0011092319928795481 0.0002119762884535204
0.4069176018 -0.1003156006 0.0010899603004344662 0.0002214009558452667
0.4122390449 -0.1003156006 0.0010603193683044892 0.00022807677426622954
0.4175605178 -0.1003156006 0.0010143843014890125 0.00023452053537163716
0.4228819609 -0.1003156006 0.0009675179363459957 0.000242245484618911
0.4282034338 -0.1003156006 0.0009216923482257602 0.0002494085283897884
0.4335248768 -0.1003156006 0.0008771460851208524 0.00025402728070217855
0.4388463497 -0.1003156006 0.0008295729947009863 0.00025280103795770245
0.4441677928 -0.1003156006 0.0007711381368787207 0.00023566622874648528
0.4494892657 -0.1003156006 0.0007143137073303812 0.00021885317088056244
0.4548107088 -0.1003156006 0.0006592098797171903 0.00020203603912733627
0.4601321816 -0.1003156006 0.0006015784435138474 0.0001848927048619471
0.4654536247 -0.1003156006 0.0005472287161567465 0.00016185030739673716
0.4707750976 -0.1003156006 0.0004958987194938624 0.00012966672676830682
0.4760965407 -0.1003156006 0.0004471921390824201 9.772427833121283e-05
0.4814180136 -0.1003156006 0.0003974132194901485 6.58294217273861e-05
0.4867394567 -0.1003156006 0.0003469005491134231 3.399494210308015e-05
0.4920609295 -0.1003156006 0.00030001569334886773 -2.9836181504201433e-06
0.4973823726 -0.1003156006 0.0002545387868315172 -4.167182594474807e-05
0.5027038455 -0.1003156006 0.00021137549510933144 -8.016065126805692e-05
0.5080252886 -0.1003156006 0.00016693076809958543 -0.00011862533417637857
0.5133467317 -0.1003156006 0.00012479891756027626 -0.000159946322449161
0.5186682343 -0.1003156006 8.021456933977429e-05 -0.00020536109686043646
0.5239896774 -0.1003156006 3.699821192513268e-05 -0.0002510231763700957
0.5293111205 -0.1003156006 -6.270940447616365e-06 -0.00029625262597955914
0.5346325636 -0.1003156006 -4.706864217328248e-05 -0.0003436698185029519
0.5399540663 -0.1003156006 -8.652587235501844e-05 -0.0003941944189714339
0.5452755094 -0.1003156006 -0.00012677119039888112 -0.0004449460994801718
0.5505969524 -0.1003156006 -0.00016551310168800548 -0.0004952909643742075
0.5559183955 -0.1003156006 -0.000202699177181219 -0.0005489710123638527
0.5612398982 -0.1003156006 -0.00024026358241950545 -0.0006037585765507607
0.5665613413 -0.1003156006 -0.0002773708172511663 -0.0006586811290371639
0.5718827844 -0.1003156006 -0.00031218482042240164 -0.000713523835226508
0.5772042274 -0.1003156006 -0.0003481328304293535 -0.000769320092804285
0.5825257301 -0.1003156006 -0.00038235865748633 -0.0008253223216009808
0.5878471732 -0.1003156006 -0.00041774961642393916 -0.0008805811937488358
0.5931686163 -0.1003156006 -0.0004524525245080508 -0.0009347232418128562
0.5984900594 -0.1003156006 -0.0004880167872223131 -0.0009891177033229184
0.6038115621 -0.1003156006 -0.0005260273316890674 -0.0010430558900327445
0.6091330051 -0.1003156006 -0.0005646239434529486 -0.0010974545119933799
0.6144544482 -0.1003156006 -0.0006063454481555893 -0.0011506401160189812
0.6197758913 -0.1003156006 -0.0006512511152342631 -0.0012052778544614164
0.625097394 -0.1003156006 -0.0006985946349689414 -0.0012599976040423087
0.6304188371 -0.1003156006 -0.0007538762387412016 -0.0013154239087152326
0.6357402802 -0.1003156006 -0.0008096231530545845 -0.0013739807440732463
0.6410617828 -0.1003156006 -0.0008711397353610465 -0.0014331660772815135
0.6463832259 -0.1003156006 -0.0009366898277956249 -0.001495974754136989
0.651704669 -0.1003156006 -0.0010063809637399475 -0.001560286570865406
0.6570261121 -0.1003156006 -0.001081992912546497 -0.0016321517437534433
0.6623476148 -0.1003156006 -0.0011618221353721985 -0.0017073443275056985
0.6676690578 -0.1003156006 -0.001245368316162671 -0.0017868802699786614
0.6729905009 -0.1003156006 -0.0013359962390423568 -0.0018761136373891172
0.678311944 -0.1003156006 -0.0014294121877228248 -0.001972476427012773
0.6836334467 -0.1003156006 -0.001526659077875959 -0.0020756861334872033
0.6889548898 -0.1003156006 -0.0016302723719825215 -0.002188584687905303
0.6942763329 -0.1003156006 -0.0017365825840955328 -0.002309577039235789
0.6995977759 -0.1003156006 -0.0018470572089477123 -0.002441302042516031
0.7049192786 -0.1003156006 -0.0019593853846275005 -0.002583936872261516
0.7102407217 -0.1003156006 -0.002072672082310859 -0.0027385640667975304
0.7155621648 -0.1003156006 -0.002188181458547024 -0.0029082796230065705
0.7208836079 -0.1003156006 -0.0023043674521334694 -0.003090032073792612
0.7262051105 -0.1003156006 -0.0024211307646904764 -0.003284269809799135
0.7315265536 -0.1003156006 -0.0025408873905350946 -0.0034968737028600845
0.7368479967 -0.1003156006 -0.0026569006118037078 -0.003730466891606182
0.7421694398 -0.1003156006 -0.00277348876597818 -0.003980707595023894
0.7474909425 -0.1003156006 -0.0028768934632228266 -0.004243698038938055
0.7528123856 -0.1003156006 -0.002980523373268181 -0.004533347097020364
0.7581338286 -0.1003156006 -0.0030752252641734522 -0.0048464728605230965
-0.3008363545 -0.09699654579 0.00018392816598361062 0.0006778459710676147
-0.2955148816 -0.09699654579 0.00019427006479332708 0.0006863452424317346
-0.2901934385 -0.09699654579 0.00021220219736961998 0.0007237893208016357
-0.2848719656 -0.09699654579 0.00022955513155006595 0.0007591832419379352
-0.2795505226 -0.09699654579 0.00024389896044543818 0.0008027092157606071
-0.2742290497 -0.09699654579 0.0002505279139095204 0.0008418843935499524
-0.2689076066 -0.09699654579 0.0002432923781647807 0.0008786270530350598
-0.2635861337 -0.09699654579 0.00023287303559470362 0.0008930712429723323
-0.2582646906 -0.09699654579 0.00019531034051960635 0.0008657082450036639
-0.2529432178 -0.09699654579 8.908775957089278e-05 0.0008301224298068674
-0.2476217598 -0.09699654579 -8.243232782943902e-05 0.000785592429846692
-0.2423003018 -0.09699654579 -0.0002125298636278625 0.0007367309891551828
-0.2369788438 -0.09699654579 -0.00018085346455547145 0.0006772742597820326
-0.2316573858 -0.09699654579 -0.00017155119107655975 0.0006163774483389734
-0.2263359278 -0.09699654579 -0.0001403295842108321 0.0005712023587378347
-0.2210144699 -0.09699654579 -0.00010526580710001044 0.0005519142843170528
-0.2156930119 -0.09699654579 -8.39489904850269e-05 0.0005290325170344161
-0.2103715539 -0.09699654579 -4.999803496818593e-05 0.0004632509103355668
-0.2050500959 -0.09699654579 -3.591224389842478e-05 0.0003936035216923279
-0.1997286379 -0.09699654579 -4.4328903154205014e-05 0.00033887536851029323
-0.19440718 -0.09699654579 -5.515286470969998e-05 0.0002791584961484102
-0.189085722 -0.09699654579 -8.650562922027924e-06 0.0002253871225208593
-0.183764264 -0.09699654579 5.2559961817764616e-05 0.0001684804803489318
-0.178442806 -0.09699654579 0.00010646295654076273 0.00013002421799200058
-0.173121348 -0.09699654579 0.00016196683628053456 9.58007860242051e-05
-0.16779989 -0.09699654579 0.0002228263248776974 5.5436329065633306e-05
-0.1624784321 -0.09699654579 0.0002861370919141536 3.197472860089684e-06
-0.1571569741 -0.09699654579 0.00033862987581743747 -2.397331931327666e-05
-0.1518355161 -0.09699654579 0.0003896296117541757 -4.177520306922208e-05
-0.1465140581 -0.09699654579 0.00044334052413047906 -5.7478192608352696e-05
-0.1411926001 -0.09699654579 0.0004966687337589897 -7.10542893999983e-05
-0.1358711421 -0.09699654579 0.0005418378954450524 -8.115528107978139e-05
-0.1305496842 -0.09699654579 0.0005895604819643395 -9.10196505851804e-05
-0.1252282262 -0.09699654579 0.0006352688619137614 -0.00010025675131632569
-0.1199067682 -0.09699654579 0.0006830591910430019 -0.00011092346410692942
-0.1145853102 -0.09699654579 0.00073177811154352 -0.00012117150403206516
-0.1092638522 -0.09699654579 0.0007803579407581012 -0.00013171381142047407
-0.1039423943 -0.09699654579 0.0008295252545811809 -0.00014214203965070136
-0.09862093627 -0.09699654579 0.0008741586543588068 -0.0001360165718207537
-0.09329947084 -0.09699654579 0.0009193767839958617 -0.00012856540365381645
-0.08797801286 -0.09699654579 0.0009638152483795105 -0.00011985511539340189
-0.08265655488 -0.09699654579 0.001008807062446009 -0.00011198579427185955
-0.0773350969 -0.09699654579 0.0010382851126291533 -9.743424445587402e-05
-0.07201363891 -0.09699654579 0.0010675437047778173 -8.206214602094336e-05
-0.06669218093 -0.09699654579 0.0010966557790598986 -6.658779887481738e-05
-0.06137072667 -0.09699654579 0.0011243524717986357 -5.0984448132203246e-05
-0.05604926869 -0.09699654579 0.001145108948573654 -3.861817575967946e-05
-0.05072781071 -0.09699654579 0.00116436986751044 -2.752752666675816e-05
-0.045406349 -0.09699654579 0.0011842673257900164 -1.6431834675876896e-05
-0.04008489102 -0.09699654579 0.0012033108430438602 -5.4576021277685035e-06
-0.03476343304 -0.09699654579 0.0012239123304441074 7.041568741065232e-06
-0.02944197692 -0.09699654579 0.0012465936145796832 2.2744167136469755e-05
-0.02412051894 -0.09699654579 0.0012690528266461186 3.8220208443025884e-05
-0.01879905909 -0.09699654579 0.0012914125463723508 5.387745645103418e-05
-0.01347760204 -0.09699654579 0.0013154276367323239 6.998768380276079e-05
-0.00815614406 -0.09699654579 0.001323889981548693 8.629257218591843e-05
-0.00283468538 -0.09699654579 0.0013210294946451185 0.00010239421621575234
0.002486772602 -0.09699654579 0.001317875405523439 0.00011906971776183897
0.007808230817 -0.09699654579 0.0013141431778699226 0.00013587207906061652
0.0131296888 -0.09699654579 0.0013112052262692399 0.00015224450775190611
0.01845114678 -0.09699654579 0.0013031452014059081 0.0001478732148041012
0.02377260476 -0.09699654579 0.0012926492258846668 0.00012769257882600869
0.02909406275 -0.09699654579 0.0012807750303340725 0.00010666968095955627
0.03441552073 -0.09699654579 0.0012682329518124986 8.546558461770129e-05
0.03973697871 -0.09699654579 0.0012577114294018605 6.524367828210585e-05
0.04505843669 -0.09699654579 0.001261594956123588 4.4684611278644125e-05
0.05037989467 -0.09699654579 0.0012920203951618295 2.173961624715058e-05
0.05570135266 -0.09699654579 0.001322993738131492 -1.4910892749218726e-06
0.06102281436 -0.09699654579 0.0013542058149411621 -2.5904365835550667e-05
0.06634426862 -0.09699654579 0.0013836157763659268 -4.845959572417619e-05
0.0716657266 -0.09699654579 0.0014142743381962703 -7.102798929327013e-05
0.07698718458 -0.09699654579 0.0014617430129166035 -4.995442210147853e-05
0.08230864257 -0.09699654579 0.0015109492847762637 -2.6244755835804736e-05
0.08763010055 -0.09699654579 0.001558888779440069 -3.039136546524084e-06
0.09295155853 -0.09699654579 0.0016059428217871975 2.0037395195524215e-05
0.09827301651 -0.09699654579 0.001653489709810071 4.323747110266836e-05
0.1035944745 -0.09699654579 0.0016792719486212603 7.813509219575642e-05
0.1089159325 -0.09699654579 0.0016612313818391675 0.0001339319990116673
0.1142373979 -0.09699654579 0.0016451595286168365 0.00018635050473395778
0.1195588559 -0.09699654579 0.0016299133250828393 0.0002361470574105118
0.1248803139 -0.09699654579 0.0016144442097923868 0.00028587875224379405
0.1302017719 -0.09699654579 0.0015975975523018604 0.000337933383893376
0.1355232298 -0.09699654579 0.001550652707717755 0.0003526972599695814
0.1408446878 -0.09699654579 0.0014870649295160648 0.0003417343219023889
0.1461661458 -0.09699654579 0.001423513419629334 0.0003308665860262094
0.1514876038 -0.09699654579 0.0013597312276275178 0.00032031728043604144
0.1568090618 -0.09699654579 0.00129677139393494 0.0003098509092289511
0.1621305197 -0.09699654579 0.0012366879276039693 0.00029977443256826056
0.1674519777 -0.09699654579 0.001219784183356889 0.0002501155683537789
0.1727734357 -0.09699654579 0.0012195941407191727 0.0001855308880820869
0.1780948937 -0.09699654579 0.0012178032336379407 0.00011811981449063286
0.1834163517 -0.09699654579 0.0012167054717758781 5.174619537844619e-05
0.1887378097 -0.09699654579 0.0012166395814875812 -8.49672405762813e-06
0.1940592676 -0.09699654579 0.0012154627059898292 -6.877781318115747e-05
0.1993807256 -0.09699654579 0.0012623096239789133 -8.721215171487187e-05
0.2047021836 -0.09699654579 0.001320957422282143 -9.416198246988933e-05
0.2100236416 -0.09699654579 0.001374220428747183 -0.00010056450639101191
0.2153450996 -0.09699654579 0.0014268958119631407 -0.00010660634081023479
0.2206665576 -0.09699654579 0.0014804503828332617 -0.00011261747239389297
0.2259880155 -0.09699654579 0.0015336930158285963 -0.00011879442482518369
0.2313094735 -0.09699654579 0.0015614006265066314 -8.545928504232019e-05
0.2366309315 -0.09699654579 0.0015814978634544042 -4.388325935446813e-05
0.2419523895 -0.09699654579 0.0016009585351488614 -2.3040048159723956e-06
0.2472738475 -0.09699654579 0.0016213590859491549 3.927652026924108e-05
0.2525953054 -0.09699654579 0.00164012097524743 7.871417924789691e-05
0.2579167783 -0.09699654579 0.001659821144447492 0.00011606167855864832
0.2632382214 -0.09699654579 0.001639428059046935 0.00014316462386082984
0.2685596943 -0.09699654579 0.0016132702537874262 0.00016745934106624318
0.2738811374 -0.09699654579 0.0015871094701381482 0.0001916621968292266
0.2792026103 -0.09699654579 0.0015634558637211318 0.00021409127910225608
0.2845240533 -0.09699654579 0.0015385239354062466 0.00023739596000001286
0.2898455262 -0.09699654579 0.001513605042919126 0.00026067380612825226
0.2951669693 -0.09699654579 0.0014840073533565357 0.0002643825051426379
0.3004884422 -0.09699654579 0.0014558265570847008 0.0002656882419584535
0.3058098853 -0.09699654579 0.0014265027475141516 0.00026693338412377723
0.3111313581 -0.09699654579 0.0013968286856767865 0.0002681224559533674
0.3164528012 -0.09699654579 0.0013679371226908556 0.00026977809650550625
0.3217742741 -0.09699654579 0.0013403235777937833 0.00027000849428241146
0.3270957172 -0.09699654579 0.001322351264475172 0.0002597789820018179
0.3324171901 -0.09699654579 0.0013049287317627297 0.0002494412393753151
0.3377386332 -0.09699654579 0.0012867128890222885 0.00023948476907059932
0.343060106 -0.09699654579 0.0012684522022396857 0.00022994311534311102
0.3483815491 -0.09699654579 0.001250529102131788 0.00022049800732318488
0.353703022 -0.09699654579 0.0012382927847290502 0.00021175980131341973
0.3590244651 -0.09699654579 0.001234489473309616 0.00020454237520529315
0.364345938 -0.09699654579 0.0012294586388040378 0.00019816731913086457
0.369667381 -0.09699654579 0.0012236423234106572 0.0001918310025508999
0.3749888539 -0.09699654579 0.0012165620020929435 0.00018535036646352663
0.380310297 -0.09699654579 0.0012077953193045839 0.00017886194959662935
0.3856317699 -0.09699654579 0.0011923655736806723 0.00018795049739827452
0.390953213 -0.09699654579 0.001176873832423214 0.00020132841885591856
0.3962746859 -0.09699654579 0.0011607799237916534 0.00021589971972295344
0.4015961289 -0.09699654579 0.0011436033834952817 0.0002282325697626425
0.4069176018 -0.09699654579 0.0011269304909581333 0.00023954966732896472
0.4122390449 -0.09699654579 0.0010953310394794056 0.0002511241773519668
0.4175605178 -0.09699654579 0.0010460524153613434 0.000262360899909942
0.4228819609 -0.09699654579 0.0009987498846053718 0.0002706386520621042
0.4282034338 -0.09699654579 0.0009522878534523828 0.00027812030636846817
0.4335248768 -0.09699654579 0.0009058345551547554 0.00028597012125969307
0.4388463497 -0.09699654579 0.0008531996195164265 0.00028728865213134325
0.4441677928 -0.09699654579 0.0007929207881369178 0.00027022203941765895
0.4494892657 -0.09699654579 0.0007325844317885269 0.00025301478654372737
0.4548107088 -0.09699654579 0.0006723984365748041 0.000236015056489281
0.4601321816 -0.09699654579 0.0006134958027189201 0.0002191660122403955
0.4654536247 -0.09699654579 0.0005584173502410589 0.00019577780744631888
0.4707750976 -0.09699654579 0.0005064842415870663 0.0001632414232702874
0.4760965407 -0.09699654579 0.0004529575029331299 0.00013004030365633185
0.4814180136 -0.09699654579 0.00040157129926100485 9.755508466222054e-05
0.4867394567 -0.09699654579 0.0003506277093177039 6.507593307077785e-05
0.4920609295 -0.09699654579 0.00030233279303171223 2.7475839873888593e-05
0.4973823726 -0.09699654579 0.0002546630721421725 -1.1596005010112451e-05
0.5027038455 -0.09699654579 0.00020917385576349953 -5.01348639303819e-05
0.5080252886 -0.09699654579 0.0001628427544919903 -8.900981734827344e-05
0.5133467317 -0.09699654579 0.00011582691311258816 -0.00013141107688079498
0.5186682343 -0.09699654579 6.899830001509337e-05 -0.00017733115208152573
0.5239896774 -0.09699654579 2.555983489085183e-05 -0.00022315397465172927
0.5293111205 -0.09699654579 -2.089221168588163e-05 -0.0002689830006368817
0.5346325636 -0.09699654579 -6.594031332252994e-05 -0.00031761723850324614
0.5399540663 -0.09699654579 -0.00010724839790470924 -0.0003687442820097819
0.5452755094 -0.09699654579 -0.0001481037515345207 -0.00041956722285799993
0.5505969524 -0.09699654579 -0.00018944251370474859 -0.0004705043316492904
0.5559183955 -0.09699654579 -0.00022877755382381964 -0.0005250882149091891
0.5612398982 -0.09699654579 -0.0002659984550504081 -0.0005799499985985622
0.5665613413 -0.09699654579 -0.0003036242166971503 -0.0006347836495043005
0.5718827844 -0.09699654579 -0.0003410091205824561 -0.0006907823815055345
0.5772042274 -0.09699654579 -0.00037520254648716844 -0.0007467086078218335
0.5825257301 -0.09699654579 -0.00040959538730352954 -0.0008027849212776545
0.5878471732 -0.09699654579 -0.00044559156252530516 -0.0008580574247342084
0.5931686163 -0.09699654579 -0.00048096022086475775 -0.0009119228631306804
0.5984900594 -0.09699654579 -0.000516750897562842 -0.0009653341732268306
0.6038115621 -0.09699654579 -0.0005550414797089266 -0.0010184244671926812
0.6091330051 -0.09699654579 -0.0005960386685026349 -0.001070034052782971
0.6144544482 -0.09699654579 -0.0006373682939511292 -0.001122795258708464
0.6197758913 -0.09699654579 -0.0006849552035535686 -0.0011755120158610005
0.625097394 -0.09699654579 -0.0007338579014045146 -0.001228867470565298
0.6304188371 -0.09699654579 -0.0007868776299026818 -0.0012822467608415056
0.6357402802 -0.09699654579 -0.0008448316485449864 -0.0013351800054272958
0.6410617828 -0.09699654579 -0.0009064459913630382 -0.0013924861612836217
0.6463832259 -0.09699654579 -0.0009748967764560972 -0.0014521376108785097
0.651704669 -0.09699654579 -0.0010492978368710913 -0.0015146486415334697
0.6570261121 -0.09699654579 -0.0011282140182587287 -0.001584078315229591
0.6623476148 -0.09699654579 -0.0012115993050107207 -0.001657328489570044
0.6676690578 -0.09699654579 -0.0012988272178003964 -0.001732780655436551
0.6729905009 -0.09699654579 -0.0013927300918896285 -0.0018183701237095497
0.678311944 -0.09699654579 -0.0014929276820280135 -0.001909913095234434
0.6836334467 -0.09699654579 -0.0015946728438564687 -0.0020088188609035233
0.6889548898 -0.09699654579 -0.0017027106110830703 -0.0021193425339612305
0.6942763329 -0.09699654579 -0.0018153653833503335 -0.002238202893415123
0.6995977759 -0.09699654579 -0.001932687508448192 -0.002366471419591037
0.7049192786 -0.09699654579 -0.0020524039796275765 -0.0025074427711289436
0.7102407217 -0.09699654579 -0.0021728535205300923 -0.0026609484082241947
0.7155621648 -0.09699654579 -0.0022968076651531675 -0.002831092534821283
0.7208836079 -0.09699654579 -0.0024250923582817543 -0.0030129449470150875
0.7262051105 -0.09699654579 -0.002554363635480526 -0.003209956589516083
0.7315265536 -0.09699654579 -0.002682478740756433 -0.0034245752460295513
0.7368479967 -0.09699654579 -0.002810461800870043 -0.0036543779922932704
0.7421694398 -0.09699654579 -0.002935207305627222 -0.003906617488467538
0.7474909425 -0.09699654579 -0.003057959034999458 -0.004174622804380348
0.7528123856 -0.09699654579 -0.003172305588014773 -0.004468835767144085
0.7581338286 -0.09699654579 -0.0032789275643929157 -0.004787477619393868
-0.3008363545 -0.09367749095 0.00020745043508376416 0.000662900515547326
-0.2955148816 -0.09367749095 0.00022036356552025934 0.0006714347639598835
-0.2901934385 -0.09367749095 0.00023219733216534247 0.0007135886672853996
-0.2848719656 -0.09367749095 0.00025397558749632625 0.00075950339087868
-0.2795505226 -0.09367749095 0.0002671879975043747 0.00080230130548675
-0.2742290497 -0.09367749095 0.00028183268821694966 0.0008452586285159065
-0.2689076066 -0.09367749095 0.00028854548091887 0.0008831366836816976
-0.2635861337 -0.09367749095 0.00029506744870407003 0.0009117186664427773
-0.2582646906 -0.09367749095 0.00023702940812351337 0.0008899207862008345
-0.2529432178 -0.09367749095 0.00015460486192551384 0.0008407592105768345
-0.2476217598 -0.09367749095 -4.660292267379153e-06 0.0007989819160294342