VARIABLES = X,Y,phix,phiy
ZONE I=200,J=200,F=POINT 
-0.3008363545 -0.1003156006 -0.001750060030163521 0.0006574762383370613
-0.2955148816 -0.1003156006 -0.0017945238372115684 0.0006691432763249682
-0.2901934385 -0.1003156006 -0.001844844201330912 0.0006331393068955125
-0.2848719656 -0.1003156006 -0.0018933820853979729 0.0005914831630072404
-0.2795505226 -0.1003156006 -0.0019450194668452054 0.0005318848492965461
-0.2742290497 -0.1003156006 -0.00201708811813829 0.00044669600802782
-0.2689076066 -0.1003156006 -0.0020981010453186805 0.00034226924576804857
-0.2635861337 -0.1003156006 -0.0021631334508054236 0.00030961684810999225
-0.2582646906 -0.1003156006 -0.002206052046332404 0.00029535497758191625
-0.2529432178 -0.1003156006 -0.002244368431384376 0.00028010265528240983
-0.2476217598 -0.1003156006 -0.002293858268715894 0.0002387594324581773
-0.2423003018 -0.1003156006 -0.0022505492763516825 0.000145534968632824
-0.2369788438 -0.1003156006 -0.0021105901424663307 4.937778160355607e-05
-0.2316573858 -0.1003156006 -0.0019492286291787088 -2.6339387516533832e-05
-0.2263359278 -0.1003156006 -0.0017978842567345945 -7.636937930915075e-05
-0.2210144699 -0.1003156006 -0.0018209455516343283 -7.146415532349455e-05
-0.2156930119 -0.1003156006 -0.0018382880905656862 -6.864166879236407e-05
-0.2103715539 -0.1003156006 -0.001868579686735531 -6.24078839202956e-05
-0.2050500959 -0.1003156006 -0.0018025260551004613 -6.533813558349674e-05
-0.1997286379 -0.1003156006 -0.0017093659985765344 -5.3075629286403323e-05
-0.19440718 -0.1003156006 -0.001607444865320089 -2.131563774868011e-05
-0.189085722 -0.1003156006 -0.0015483117654491705 1.2962646659043698e-05
-0.183764264 -0.1003156006 -0.001495825825896535 3.606174187730339e-05
-0.178442806 -0.1003156006 -0.001443101441679395 6.13180003614848e-05
-0.173121348 -0.1003156006 -0.0014625307061689125 0.00012158145295746844
-0.16779989 -0.1003156006 -0.0014932384549653096 0.00018528579020149344
-0.1624784321 -0.1003156006 -0.0015244918268143336 0.00023409223617384148
-0.1571569741 -0.1003156006 -0.0015487450124478848 0.00026686513747997004
-0.1518355161 -0.1003156006 -0.0015707800334168092 0.00028721210255384206
-0.1465140581 -0.1003156006 -0.0015945931685259923 0.0003053752901182211
-0.1411926001 -0.1003156006 -0.001610890021714649 0.0003087402632945256
-0.1358711421 -0.1003156006 -0.001612685944868739 0.00028694099545868755
-0.1305496842 -0.1003156006 -0.0016139887052015597 0.0002651172605695214
-0.1252282262 -0.1003156006 -0.0016150287094878278 0.0002376496193274386
-0.1199067682 -0.1003156006 -0.0016140814000268765 0.00022217891411213826
-0.1145853102 -0.1003156006 -0.0016133273204246828 0.0002118832902575742
-0.1092638522 -0.1003156006 -0.0016164669785466146 0.00020360987756841244
-0.1039423943 -0.1003156006 -0.001618911183074126 0.00019491709269539866
-0.09862093627 -0.1003156006 -0.001630876235600808 0.00019690700693920357
-0.09329947084 -0.1003156006 -0.00164419155073182 0.00019702917534116673
-0.08797801286 -0.1003156006 -0.0016584370075615979 0.00019716414999863528
-0.08265655488 -0.1003156006 -0.0016681505086207115 0.00019429338300983872
-0.0773350969 -0.1003156006 -0.0016395015993357028 0.00017012255777209022
-0.07201363891 -0.1003156006 -0.001611163874012572 0.00014605675723064802
-0.06669218093 -0.1003156006 -0.0015827652694765605 0.00012198321583778692
-0.06137072667 -0.1003156006 -0.0015519964516687917 9.422228917427038e-05
-0.05604926869 -0.1003156006 -0.0015157974395226055 7.636752000168664e-05
-0.05072781071 -0.1003156006 -0.001478855572295284 6.168255616563625e-05
-0.045406349 -0.1003156006 -0.0014423386117596343 4.6294777806016034e-05
-0.04008489102 -0.1003156006 -0.0014064887825530961 3.2199159276434314e-05
-0.03476343304 -0.1003156006 -0.00137372174826815 2.246383087757207e-05
-0.02944197692 -0.1003156006 -0.0013499376220599633 2.2644124830939743e-05
-0.02412051894 -0.1003156006 -0.0013258250952940473 2.282157962116117e-05
-0.01879905909 -0.1003156006 -0.001302302185553877 2.2850392670127093e-05
-0.01347760204 -0.1003156006 -0.001278790490634243 2.2980333495850747e-05
-0.00815614406 -0.1003156006 -0.0012497379807395706 2.7866427967325407e-05
-0.00283468538 -0.1003156006 -0.0012181311999334191 3.708264525154503e-05
0.002486772602 -0.1003156006 -0.0011853748634081435 4.581250646672574e-05
0.007808230817 -0.1003156006 -0.0011525547889529768 5.460388589175146e-05
0.0131296888 -0.1003156006 -0.0011206764015843215 6.36988879673771e-05
0.01845114678 -0.1003156006 -0.0010910394691710484 8.429882326568692e-05
0.02377260476 -0.1003156006 -0.0010650776151262045 0.00011457032956324519
0.02909406275 -0.1003156006 -0.0010383703441036146 0.0001461292156152118
0.03441552073 -0.1003156006 -0.0010120053532755007 0.00017768410423278942
0.03973697871 -0.1003156006 -0.0009864851632898695 0.0002081123541430929
0.04505843669 -0.1003156006 -0.0009709191016599018 0.00023636473238786477
0.05037989467 -0.1003156006 -0.0009731669314230289 0.00025970822956693576
0.05570135266 -0.1003156006 -0.0009747545617235006 0.00028379199154366915
0.06102281436 -0.1003156006 -0.0009774468752228754 0.00030788553580777807
0.06634426862 -0.1003156006 -0.0009793191431922356 0.00033129639183385564
0.0716657266 -0.1003156006 -0.0009798751476884971 0.00035443389886063217
0.07698718458 -0.1003156006 -0.0009734826497322014 0.00036295731630844896
0.08230864257 -0.1003156006 -0.0009664553617940091 0.0003702996430582154
0.08763010055 -0.1003156006 -0.0009601738974477227 0.00037722886292989894
0.09295155853 -0.1003156006 -0.0009540322290446718 0.0003844930839382351
0.09827301651 -0.1003156006 -0.000946896956590355 0.0003920788132305745
0.1035944745 -0.1003156006 -0.000939029332399484 0.0004033608606840147
0.1089159325 -0.1003156006 -0.000924405186239414 0.0004213167976134371
0.1142373979 -0.1003156006 -0.0009105214201812201 0.0004393024985574275
0.1195588559 -0.1003156006 -0.0008969202002450417 0.0004569140602884854
0.1248803139 -0.1003156006 -0.0008836252012267519 0.0004748476894244287
0.1302017719 -0.1003156006 -0.000868839900482742 0.0004925586097071865
0.1355232298 -0.1003156006 -0.0008644084279212952 0.0005140138995907344
0.1408446878 -0.1003156006 -0.0008670450211933945 0.000538358582643074
0.1461661458 -0.1003156006 -0.0008683114992575664 0.0005610082639958168
0.1514876038 -0.1003156006 -0.0008689905814178181 0.000583724822736249
0.1568090618 -0.1003156006 -0.0008700379556203024 0.0006064311919655279
0.1621305197 -0.1003156006 -0.000870555800487876 0.0006291248786546631
0.1674519777 -0.1003156006 -0.0008790116201054844 0.0006290833652520094
0.1727734357 -0.1003156006 -0.0008889825030499877 0.0006211049622055817
0.1780948937 -0.1003156006 -0.0008989441136817076 0.0006131091843220947
0.1834163517 -0.1003156006 -0.0009093834732930424 0.0006051077700706762
0.1887378097 -0.1003156006 -0.0009193901000053745 0.0005972404410731971
0.1940592676 -0.1003156006 -0.0009259007519506769 0.0005915730031663211
0.1993807256 -0.1003156006 -0.0008962753299486172 0.0005824282939651474
0.2047021836 -0.1003156006 -0.0008550906882324098 0.0005717225946616448
0.2100236416 -0.1003156006 -0.0008149427791913165 0.0005610628060418614
0.2153450996 -0.1003156006 -0.0007753632613789233 0.000553432441675189
0.2206665576 -0.1003156006 -0.0007371711969976376 0.0005449421482048668
0.2259880155 -0.1003156006 -0.0006981721637566865 0.0005363579401021918
0.2313094735 -0.1003156006 -0.00064408693826981 0.0005677703220213437
0.2366309315 -0.1003156006 -0.0005873465581127063 0.0006095095609567149
0.2419523895 -0.1003156006 -0.0005325631470954041 0.0006502356109194385
0.2472738475 -0.1003156006 -0.00047845099071188005 0.0006907354777810245
0.2525953054 -0.1003156006 -0.0004245877694167267 0.0007308488778736939
0.2579167783 -0.1003156006 -0.00037278679060764034 0.0007701231948971736
0.2632382214 -0.1003156006 -0.00035051193572847004 0.0008228119988929661
0.2685596943 -0.1003156006 -0.0003338729907815447 0.0008799097288609129
0.2738811374 -0.1003156006 -0.0003169579881881391 0.000938084366073174
0.2792026103 -0.1003156006 -0.00030099795065727063 0.0009953787434279265
0.2845240533 -0.1003156006 -0.0002851604164034846 0.001050276343485437
0.2898455262 -0.1003156006 -0.0002695199024229304 0.0011051741810298161
0.2951669693 -0.1003156006 -0.0002764337604302412 0.0011542182083717984
0.3004884422 -0.1003156006 -0.0002868555635501223 0.0012022288156530087
0.3058098853 -0.1003156006 -0.00029727054711884966 0.0012492404260928006
0.3111313581 -0.1003156006 -0.00030713506671877736 0.0012962796838815367
0.3164528012 -0.1003156006 -0.000317301312587706 0.001343270287075747
0.3217742741 -0.1003156006 -0.00032756036285816584 0.0013898292727586464
0.3270957172 -0.1003156006 -0.000341435611116393 0.0014201908418700043
0.3324171901 -0.1003156006 -0.00035625665122951443 0.0014506410607674311
0.3377386332 -0.1003156006 -0.000370305306201304 0.0014812480590190465
0.343060106 -0.1003156006 -0.00038457586358302465 0.0015117833399829323
0.3483815491 -0.1003156006 -0.0004004050961362557 0.0015436483376137882
0.353703022 -0.1003156006 -0.0004128036193590106 0.001578647822688697
0.3590244651 -0.1003156006 -0.00041482149569189563 0.0016192563813871095
0.364345938 -0.1003156006 -0.0004167755493574647 0.001659742252054112
0.369667381 -0.1003156006 -0.0004228747475702891 0.0016996645034393439
0.3749888539 -0.1003156006 -0.0004273175277390662 0.0017397199704673445
0.380310297 -0.1003156006 -0.00043212078758127486 0.001779862614876901
0.3856317699 -0.1003156006 -0.00045436021300125445 0.0018347024841782083
0.390953213 -0.1003156006 -0.00048202580410809534 0.0018897010299502716
0.3962746859 -0.1003156006 -0.0005104113848687486 0.0019436680248689137
0.4015961289 -0.1003156006 -0.0005398138614341123 0.0019977838493956367
0.4069176018 -0.1003156006 -0.0005698809531142682 0.0020520453148670393
0.4122390449 -0.1003156006 -0.0006113745036858741 0.0020949553224902796
0.4175605178 -0.1003156006 -0.0006719101415739153 0.002127190241913451
0.4228819609 -0.1003156006 -0.0007335016642420821 0.002159328838132793
0.4282034338 -0.1003156006 -0.0007955456036891393 0.002191942606504722
0.4335248768 -0.1003156006 -0.0008510865113163128 0.0022224368269316386
0.4388463497 -0.1003156006 -0.0009085595435619253 0.0022439634915310375
0.4441677928 -0.1003156006 -0.0009658395137289325 0.0022427309392114504
0.4494892657 -0.1003156006 -0.001022786950356164 0.002241703598674849
0.4548107088 -0.1003156006 -0.0010759090474782213 0.0022421069802544867
0.4601321816 -0.1003156006 -0.0011311666794187113 0.002241858728565829
0.4654536247 -0.1003156006 -0.0011765106712192028 0.002231959063233688
0.4707750976 -0.1003156006 -0.0012034803086087606 0.0022088443843144958
0.4760965407 -0.1003156006 -0.0012288843002670597 0.002189639568670964
0.4814180136 -0.1003156006 -0.0012548783336257766 0.0021704020459217964
0.4867394567 -0.1003156006 -0.001280823613435241 0.002150683661485703
0.4920609295 -0.1003156006 -0.0012817378752230655 0.002130993845845739
0.4973823726 -0.1003156006 -0.0012753450150279433 0.0021131591387466924
0.5027038455 -0.1003156006 -0.0012667401546856783 0.002095678092308858
0.5080252886 -0.1003156006 -0.001258500975539131 0.0020782274472803263
0.5133467317 -0.1003156006 -0.001240243018780242 0.002072491161059532
0.5186682343 -0.1003156006 -0.0012106318843405038 0.0020745548013987444
0.5239896774 -0.1003156006 -0.001179964527110244 0.0020761491840397515
0.5293111205 -0.1003156006 -0.001150199714063641 0.0020786760399107134
0.5346325636 -0.1003156006 -0.0011191473985063666 0.0020912274241130318
0.5399540663 -0.1003156006 -0.0010842654472995596 0.0021145765181204428
0.5452755094 -0.1003156006 -0.0010488145076202676 0.002137986183089896
0.5505969524 -0.1003156006 -0.0010143593524874078 0.002161287137967506
0.5559183955 -0.1003156006 -0.000984717115040933 0.0021952133806023826
0.5612398982 -0.1003156006 -0.0009555577160302529 0.0022340390738047567
0.5665613413 -0.1003156006 -0.0009261366876430092 0.0022724844385684016
0.5718827844 -0.1003156006 -0.0008990750993623678 0.0023132965793316086
0.5772042274 -0.1003156006 -0.0008753872548424557 0.0023610054458687462
0.5825257301 -0.1003156006 -0.0008515959080278226 0.002408971347696479
0.5878471732 -0.1003156006 -0.0008313791738988427 0.002456958535898805
0.5931686163 -0.1003156006 -0.0008137804296003701 0.0025077064491283193
0.5984900594 -0.1003156006 -0.0007941907787275508 0.0025587488297811305
0.6038115621 -0.1003156006 -0.0007805950289230206 0.0026099590070085103
0.6091330051 -0.1003156006 -0.0007664627438199647 0.0026609445595345985
0.6144544482 -0.1003156006 -0.0007543314014178532 0.0027122409902621872
0.6197758913 -0.1003156006 -0.0007433758344661081 0.002763001669978097
0.625097394 -0.1003156006 -0.0007322771382099898 0.002813179825799036
0.6304188371 -0.1003156006 -0.0007209730210953297 0.002861619166278456
0.6357402802 -0.1003156006 -0.0007095790494867387 0.002910184410310086
0.6410617828 -0.1003156006 -0.0006925221430295671 0.002958863948579834
0.6463832259 -0.1003156006 -0.0006748456345681026 0.0030058738688007965
0.651704669 -0.1003156006 -0.0006551913109828064 0.0030529837395709253
0.6570261121 -0.1003156006 -0.0006322270058894565 0.0031015120968730546
0.6623476148 -0.1003156006 -0.0006063919468003033 0.003150695324389478
0.6676690578 -0.1003156006 -0.0005763485615497332 0.0032003734753428045
0.6729905009 -0.1003156006 -0.0005401741117463981 0.0032560984918209683
0.678311944 -0.1003156006 -0.0005006197638033471 0.003315851823908576
0.6836334467 -0.1003156006 -0.0004556609843715773 0.0033793956136687242
0.6889548898 -0.1003156006 -0.00040414742941902865 0.0034483334531631416
0.6942763329 -0.1003156006 -0.0003487055987837301 0.003526702957674865
0.6995977759 -0.1003156006 -0.00028912751188296296 0.0036113314640889393
0.7049192786 -0.1003156006 -0.00022745546011627003 0.0037058273042927955
0.7102407217 -0.1003156006 -0.00016133332961945534 0.003812741478106219
0.7155621648 -0.1003156006 -9.380536267570245e-05 0.003933227423003668
0.7208836079 -0.1003156006 -2.7372792457787855e-05 0.00406643719172875
0.7262051105 -0.1003156006 3.931369405576268e-05 0.00421330050587767
0.7315265536 -0.1003156006 0.00010350404427784543 0.004377608930859675
0.7368479967 -0.1003156006 0.00016213990091474211 0.004564506221265606
0.7421694398 -0.1003156006 0.00021690966918220267 0.004769847909571594
0.7474909425 -0.1003156006 0.00025459653837409883 0.004986020794930681
0.7528123856 -0.1003156006 0.00028031266926940125 0.00522740023375715
0.7581338286 -0.1003156006 0.0002907028914750428 0.0054885543653483936
-0.3008363545 -0.09699654579 -0.0018094305195802153 0.0006799351109093445
-0.2955148816 -0.09699654579 -0.00183869102695926 0.0007001055770470758
-0.2901934385 -0.09699654579 -0.0018911405097718167 0.0006987794729367846
-0.2848719656 -0.09699654579 -0.0019409165876679176 0.0006502958666779998
-0.2795505226 -0.09699654579 -0.0019978534409285293 0.0005991168225075447
-0.2742290497 -0.09699654579 -0.0020656652626170036 0.0005183810074531334
-0.2689076066 -0.09699654579 -0.002154702386093236 0.0003980785970532915
-0.2635861337 -0.09699654579 -0.002243282812496184 0.0003008674770029845
-0.2582646906 -0.09699654579 -0.0022888597979829743 0.0002865631065366099
-0.2529432178 -0.09699654579 -0.0023352112999107267 0.00025032317586436956
-0.2476217598 -0.09699654579 -0.0023954020703955184 0.00018970967974395062
-0.2423003018 -0.09699654579 -0.0024033827862003816 0.0001185510121880131
-0.2369788438 -0.09699654579 -0.002263613776946489 3.251644446188157e-05
-0.2316573858 -0.09699654579 -0.0020837079048739732 -3.434110378447804e-05
-0.2263359278 -0.09699654579 -0.001848936134682781 -9.867818893452051e-05
-0.2210144699 -0.09699654579 -0.001834501408408569 -0.00010700851637203456
-0.2156930119 -0.09699654579 -0.0018629005838633945 -0.000101517920190276
-0.2103715539 -0.09699654579 -0.001873701132859029 -8.956787799841666e-05
-0.2050500959 -0.09699654579 -0.001806674119360734 -7.016088001328503e-05
-0.1997286379 -0.09699654579 -0.0017037449283647795 -3.757204324781532e-05
-0.19440718 -0.09699654579 -0.0016028993862017866 -1.2315459805340902e-05
-0.189085722 -0.09699654579 -0.001534177506592346 2.4046300002693514e-05
-0.183764264 -0.09699654579 -0.0014816838682001382 6.0287161754825226e-05
-0.178442806 -0.09699654579 -0.0014301271260803374 0.00013364877640426086
-0.173121348 -0.09699654579 -0.0014389011205792133 0.0001916615246832725
-0.16779989 -0.09699654579 -0.0014701631303686096 0.00023115727194782652
-0.1624784321 -0.09699654579 -0.0015047611660734513 0.00026251533470402665
-0.1571569741 -0.09699654579 -0.0015359038824598826 0.00029826835651187766
-0.1518355161 -0.09699654579 -0.0015588645869244757 0.00031547139986532456
-0.1465140581 -0.09699654579 -0.0015796357808995115 0.0003269817894785996
-0.1411926001 -0.09699654579 -0.001594061612789455 0.00032745108182711586
-0.1358711421 -0.09699654579 -0.0015952143064661333 0.00029899599515008287
-0.1305496842 -0.09699654579 -0.001595865251601874 0.0002670889631489456
-0.1252282262 -0.09699654579 -0.0015968523990981818 0.00023468338612083877
-0.1199067682 -0.09699654579 -0.001601123275235606 0.000221487844725936
-0.1145853102 -0.09699654579 -0.0016072588649815533 0.0002144928910154626
-0.1092638522 -0.09699654579 -0.0016148632946684576 0.00020922117918682068
-0.1039423943 -0.09699654579 -0.0016280994561492458 0.00020638121329768708
-0.09862093627 -0.09699654579 -0.0016415931023298007 0.00020500982936293307
-0.09329947084 -0.09699654579 -0.0016533743185046543 0.00020195592518468128
-0.08797801286 -0.09699654579 -0.0016647657763647994 0.00019705147392894587
-0.08265655488 -0.09699654579 -0.0016747797517395028 0.000191669256786013
-0.0773350969 -0.09699654579 -0.0016429548784866064 0.00016303384642714906
-0.07201363891 -0.09699654579 -0.0016088514337440853 0.00013180102213160587
-0.06669218093 -0.09699654579 -0.0015755174504837792 0.0001004143242950992
-0.06137072667 -0.09699654579 -0.0015408153602465503 6.83484349291704e-05
-0.05604926869 -0.09699654579 -0.0015046898292210562 5.201206560249406e-05
-0.05072781071 -0.09699654579 -0.0014690807562139393 3.9198601394283466e-05
-0.045406349 -0.09699654579 -0.0014328512989256826 2.6383566221051882e-05
-0.04008489102 -0.09699654579 -0.001397959750948425 1.510019922114394e-05
-0.03476343304 -0.09699654579 -0.0013673408698486927 7.787345818774013e-06
-0.02944197692 -0.09699654579 -0.0013444694896803657 6.908580919220797e-06
-0.02412051894 -0.09699654579 -0.0013214173419450281 6.388191688826454e-06
-0.01879905909 -0.09699654579 -0.001297912483658863 5.481930654774695e-06
-0.01347760204 -0.09699654579 -0.0012753412339791574 4.099082447376556e-06
-0.00815614406 -0.09699654579 -0.0012458813413754382 7.810133264682885e-06
-0.00283468538 -0.09699654579 -0.0012124226727862077 1.604944493708011e-05
0.002486772602 -0.09699654579 -0.0011765599562702888 2.3989553218627447e-05
0.007808230817 -0.09699654579 -0.0011428273426662568 3.177193626596749e-05
0.0131296888 -0.09699654579 -0.0011079404689581772 3.98432231223892e-05
0.01845114678 -0.09699654579 -0.0010771009828386118 6.222419842993642e-05
0.02377260476 -0.09699654579 -0.0010495062302719603 9.571735455570888e-05
0.02909406275 -0.09699654579 -0.0010219407863379052 0.0001304283428298248
0.03441552073 -0.09699654579 -0.0009932269411780516 0.00016534111824147163
0.03973697871 -0.09699654579 -0.0009662861649978584 0.0001989518505932261
0.04505843669 -0.09699654579 -0.0009525339248992676 0.00023001728850095086
0.05037989467 -0.09699654579 -0.0009577767440300092 0.0002550606425245612
0.05570135266 -0.09699654579 -0.000962751209393957 0.00028034849483536965
0.06102281436 -0.09699654579 -0.0009691003985961659 0.0003059375921012468
0.06634426862 -0.09699654579 -0.0009736202587714365 0.0003307448799454233
0.0716657266 -0.09699654579 -0.000977548688478547 0.00035556577482312684
0.07698718458 -0.09699654579 -0.0009730677438673015 0.0003620950122827205
0.08230864257 -0.09699654579 -0.0009684393230128883 0.00036751534883291395
0.08763010055 -0.09699654579 -0.0009622706301912185 0.0003732210649641216
0.09295155853 -0.09699654579 -0.0009575362730064275 0.00037908854762208686
0.09827301651 -0.09699654579 -0.0009520066262509921 0.00038492672348342124
0.1035944745 -0.09699654579 -0.0009444317301604654 0.0003957838437614341
0.1089159325 -0.09699654579 -0.0009283423562650292 0.00041501137566211596
0.1142373979 -0.09699654579 -0.0009123257191761314 0.00043413590964869517
0.1195588559 -0.09699654579 -0.0008974204177918286 0.0004526807157656977
0.1248803139 -0.09699654579 -0.0008817327087900554 0.0004712658614791696
0.1302017719 -0.09699654579 -0.0008667498238482679 0.0004904980540671975
0.1355232298 -0.09699654579 -0.0008643596919124376 0.0005147350984806514
0.1408446878 -0.09699654579 -0.000867323584671999 0.0005413734222173197
0.1461661458 -0.09699654579 -0.0008709540701414786 0.0005677006781350045
0.1514876038 -0.09699654579 -0.0008746340466658534 0.0005940610850708986
0.1568090618 -0.09699654579 -0.0008774971095226067 0.0006204209330042864
0.1621305197 -0.09699654579 -0.0008805702340821898 0.0006455085844273324
0.1674519777 -0.09699654579 -0.0008923272326172488 0.0006426201255276706
0.1727734357 -0.09699654579 -0.0009077166182502452 0.0006304438034012268
0.1780948937 -0.09699654579 -0.0009251970218837031 0.0006172292913855058
0.1834163517 -0.09699654579 -0.0009426219278780116 0.0006040316838560857
0.1887378097 -0.09699654579 -0.0009561163067303499 0.0005937785986005387
0.1940592676 -0.09699654579 -0.0009697692260548143 0.0005835281127153813
0.1993807256 -0.09699654579 -0.0009368625178216905 0.000567563743128321
0.2047021836 -0.09699654579 -0.0008932597434089776 0.0005494412629775418
0.2100236416 -0.09699654579 -0.0008515251517946337 0.0005358281165334136
0.2153450996 -0.09699654579 -0.0008098159014842877 0.0005229186638697358
0.2206665576 -0.09699654579 -0.0007690335474453994 0.0005099989238856159
0.2259880155 -0.09699654579 -0.0007263616241550599 0.0004968237509832303
0.2313094735 -0.09699654579 -0.0006704969434414187 0.0005302620788355138
0.2366309315 -0.09699654579 -0.0006088941578236949 0.0005742787991934868
0.2419523895 -0.09699654579 -0.0005475195215414453 0.0006181284874916733
0.2472738475 -0.09699654579 -0.0004861136657108066 0.000662094682859045
0.2525953054 -0.09699654579 -0.0004275649348091541 0.0007051073726500492
0.2579167783 -0.09699654579 -0.00037121199122403995 0.0007468029270375425
0.2632382214 -0.09699654579 -0.000347210954221127 0.0008048042424223737
0.2685596943 -0.09699654579 -0.00032907100718908777 0.0008665958161467504
0.2738811374 -0.09699654579 -0.00031179203595624343 0.0009270781569495183
0.2792026103 -0.09699654579 -0.0002940034001808583 0.000986041722174231
0.2845240533 -0.09699654579 -0.00027674262611031525 0.001045266826703704
0.2898455262 -0.09699654579 -0.0002587840927540292 0.0011053202474907585
0.2951669693 -0.09699654579 -0.00026488001076901475 0.0011563920989693885
0.3004884422 -0.09699654579 -0.0002748187761906731 0.0012057377111127977
0.3058098853 -0.09699654579 -0.0002851894400839089 0.0012545599095781935
0.3111313581 -0.09699654579 -0.0002960273582223608 0.0013033316225914038
0.3164528012 -0.09699654579 -0.00030709096192342827 0.0013514785053033984
0.3217742741 -0.09699654579 -0.0003166247117387761 0.0013979627482612364
0.3270957172 -0.09699654579 -0.0003258398740891896 0.0014273725553170281
0.3324171901 -0.09699654579 -0.00033451321021349764 0.0014567779307878765
0.3377386332 -0.09699654579 -0.00034409294832809845 0.0014862723703681774
0.343060106 -0.09699654579 -0.00035328952986557287 0.001516636950060648
0.3483815491 -0.09699654579 -0.0003626970884181199 0.0015471216379750157
0.353703022 -0.09699654579 -0.000365567444112892 0.001581957296589531
0.3590244651 -0.09699654579 -0.00035638100643197736 0.0016239471887639898
0.364345938 -0.09699654579 -0.00035244558859890107 0.0016654853136323687
0.369667381 -0.09699654579 -0.0003490491775956754 0.001706977421143798
0.3749888539 -0.09699654579 -0.00034781085110204154 0.0017479576042748128
0.380310297 -0.09699654579 -0.0003497739185199561 0.0017884424725244563
0.3856317699 -0.09699654579 -0.00037216899819164466 0.001843763898955595
0.390953213 -0.09699654579 -0.0003992671912788573 0.0019042333664506285
0.3962746859 -0.09699654579 -0.0004260735207800549 0.0019655435490707122
0.4015961289 -0.09699654579 -0.000454223328673456 0.002024681681668
0.4069176018 -0.09699654579 -0.0004815577221563351 0.002080880417900607
0.4122390449 -0.09699654579 -0.000527233137588342 0.0021274483162436186
0.4175605178 -0.09699654579 -0.0005920252622315711 0.002161405789123175
0.4228819609 -0.09699654579 -0.0006553243299339122 0.002194469534443097
0.4282034338 -0.09699654579 -0.0007166039641255052 0.0022262029660572013
0.4335248768 -0.09699654579 -0.0007786108001139957 0.0022585202416862417
0.4388463497 -0.09699654579 -0.0008430003391467749 0.0022799930924004854
0.4441677928 -0.09699654579 -0.0009050825065737259 0.002276489086118372
0.4494892657 -0.09699654579 -0.0009648985609985457 0.0022736645262311514
0.4548107088 -0.09699654579 -0.0010268634015955561 0.002271174888903412
0.4601321816 -0.09699654579 -0.0010871075430278492 0.0022690052929044127
0.4654536247 -0.09699654579 -0.0011306582430196416 0.0022584920630558626
0.4707750976 -0.09699654579 -0.0011600867389848905 0.0022327792135746678
0.4760965407 -0.09699654579 -0.001189980174636031 0.002204748698037157
0.4814180136 -0.09699654579 -0.0012189064409319152 0.0021789771340876766
0.4867394567 -0.09699654579 -0.001246014701181197 0.002156481804858135
0.4920609295 -0.09699654579 -0.0012458822094524172 0.00213370804712179
0.4973823726 -0.09699654579 -0.0012382067142636976 0.002110826950342975
0.5027038455 -0.09699654579 -0.0012312554550152695 0.00209049565947942
0.5080252886 -0.09699654579 -0.0012241785173450095 0.0020694611132802275
0.5133467317 -0.09699654579 -0.0012059502929033243 0.0020576774663243003
0.5186682343 -0.09699654579 -0.0011762980095416725 0.0020577686244828354
0.5239896774 -0.09699654579 -0.001148092003018083 0.0020595487392623957
0.5293111205 -0.09699654579 -0.0011184564552824613 0.002060597444703966
0.5346325636 -0.09699654579 -0.0010863690650640013 0.0020709801671458007
0.5399540663 -0.09699654579 -0.0010520942091709214 0.0020945283505010323
0.5452755094 -0.09699654579 -0.001017790039558222 0.002117985103516844
0.5505969524 -0.09699654579 -0.0009834741997368486 0.002141580043734464
0.5559183955 -0.09699654579 -0.0009520106678541795 0.0021773484621557624
0.5612398982 -0.09699654579 -0.0009222439855641411 0.0022161696085693863
0.5665613413 -0.09699654579 -0.0008921356921649734 0.0022550560562349265
0.5718827844 -0.09699654579 -0.0008647914755756962 0.002298984790874377
0.5772042274 -0.09699654579 -0.0008397757232364406 0.0023473384996508017
0.5825257301 -0.09699654579 -0.0008155768877670395 0.0023958064639155647
0.5878471732 -0.09699654579 -0.0007953257201598014 0.002446482354895773
0.5931686163 -0.09699654579 -0.0007789349719511607 0.0024979630360529004
0.5984900594 -0.09699654579 -0.0007619118066156982 0.002550043741982358
0.6038115621 -0.09699654579 -0.0007494718810044018 0.002601791104602621
0.6091330051 -0.09699654579 -0.0007398135834234378 0.0026530767894032492
0.6144544482 -0.09699654579 -0.000729880926649537 0.0027043382107465657
0.6197758913 -0.09699654579 -0.000720149071473665 0.0027549006286827033
0.625097394 -0.09699654579 -0.0007118795884976996 0.0028048998258582186
0.6304188371 -0.09699654579 -0.0006980566929398643 0.002853835311311256
0.6357402802 -0.09699654579 -0.0006876849758880556 0.0029010883143713055
0.6410617828 -0.09699654579 -0.0006721153935445258 0.0029482072051463114
0.6463832259 -0.09699654579 -0.0006560320947428284 0.0029939745206184407
0.651704669 -0.09699654579 -0.0006377490969247701 0.0030394300023162224
0.6570261121 -0.09699654579 -0.0006131687676707956 0.003085906793015096
0.6623476148 -0.09699654579 -0.0005859807784589068 0.0031329920174988663
0.6676690578 -0.09699654579 -0.0005557991350266311 0.003181014030943643
0.6729905009 -0.09699654579 -0.000517961199039197 0.0032323405855744164
0.678311944 -0.09699654579 -0.00047462188600136195 0.0032871403435030563
0.6836334467 -0.09699654579 -0.0004267860557342186 0.003346773344922443
0.6889548898 -0.09699654579 -0.0003729521789558908 0.0034134339718959743
0.6942763329 -0.09699654579 -0.00031291662184199543 0.0034866416413297627
0.6995977759 -0.09699654579 -0.0002465975433973796 0.0035681329728538985
0.7049192786 -0.09699654579 -0.00017812415090544983 0.003660189300133603
0.7102407217 -0.09699654579 -0.00010604655556503487 0.003764880997886838
0.7155621648 -0.09699654579 -3.025956240355316e-05 0.003885834681238626
0.7208836079 -0.09699654579 5.0016233127213934e-05 0.004020383896484707
0.7262051105 -0.09699654579 0.00012841050783607205 0.004171573029546972
0.7315265536 -0.09699654579 0.00020073119873529558 0.004339252088143686
0.7368479967 -0.09699654579 0.0002750349257857431 0.004524375857688204
0.7421694398 -0.09699654579 0.0003371068892201407 0.004733880553893532
0.7474909425 -0.09699654579 0.0003943682841894354 0.004963049029821009
0.7528123856 -0.09699654579 0.00043064238456447674 0.005214316051450125
0.7581338286 -0.09699654579 0.00044945070904977793 0.005485316893500137
-0.3008363545 -0.09367749095 -0.0018676166866479305 0.0006995096386781559
-0.2955148816 -0.09367749095 -0.0018946302165676312 0.0007152263043199264
-0.2901934385 -0.09367749095 -0.0019337078315350548 0.0007478504911196985
-0.2848719656 -0.09367749095 -0.0019883427709708 0.0007291993136713015
-0.2795505226 -0.09367749095 -0.00204688524470989 0.0006722937205976958
-0.2742290497 -0.09367749095 -0.0021160604543119543 0.0005864449682883755
-0.2689076066 -0.09367749095 -0.0021978509759486378 0.00047649611432448247
-0.2635861337 -0.09367749095 -0.002306600605198177 0.0003269254397229853
-0.2582646906 -0.09367749095 -0.0023769087969264637 0.00026164005341387174
-0.2529432178 -0.09367749095 -0.0024360735896337606 0.00020432708159882446
-0.2476217598 -0.09367749095 -0.0024948938399340617 0.00014610301973995985