VARIABLES = X,Y,phix,phiy
ZONE I=200,J=200,F=POINT 
-0.3008363545 -0.1003156006 9.194340757848313e-05 -0.0008412967213666671
-0.2955148816 -0.1003156006 0.0001097711983981282 -0.000832673428230951
-0.2901934385 -0.1003156006 0.00012648344364157382 -0.0008221912267968868
-0.2848719656 -0.1003156006 0.000143843382798463 -0.0008113312098064243
-0.2795505226 -0.1003156006 0.00016187515424851358 -0.0007986802094635782
-0.2742290497 -0.1003156006 0.00018006742732747813 -0.0007838105610809845
-0.2689076066 -0.1003156006 0.00019924224743051708 -0.0007682374308177884
-0.2635861337 -0.1003156006 0.0002153259931394079 -0.0007517728758694651
-0.2582646906 -0.1003156006 0.00023144092515644054 -0.000732543263752258
-0.2529432178 -0.1003156006 0.00024769428137175523 -0.0007117139555077648
-0.2476217598 -0.1003156006 0.0002646501681548453 -0.0006895186411042991
-0.2423003018 -0.1003156006 0.0002769392091731938 -0.0006663267982994138
-0.2369788438 -0.1003156006 0.0002861863217976176 -0.0006416818172417981
-0.2316573858 -0.1003156006 0.0002953986441539872 -0.0006152418560846494
-0.2263359278 -0.1003156006 0.000302914749800577 -0.0005883728649085124
-0.2210144699 -0.1003156006 0.0003055536398220884 -0.0005643691662236718
-0.2156930119 -0.1003156006 0.0003077300915677643 -0.0005395960491098021
-0.2103715539 -0.1003156006 0.0003085849822466411 -0.0005141368707871621
-0.2050500959 -0.1003156006 0.00030788832350427884 -0.000491310310685343
-0.1997286379 -0.1003156006 0.0003067682094539981 -0.0004677397059015133
-0.19440718 -0.1003156006 0.0003049121195357202 -0.00044364711821475773
-0.189085722 -0.1003156006 0.0003014938769908331 -0.00042227564165988316
-0.183764264 -0.1003156006 0.00029689457864451844 -0.00040066686273321613
-0.178442806 -0.1003156006 0.0002923550484958 -0.000378974211575798
-0.173121348 -0.1003156006 0.00028561973056377444 -0.00035933841106362304
-0.16779989 -0.1003156006 0.00027873796820801527 -0.0003401544968572391
-0.1624784321 -0.1003156006 0.0002711860493552625 -0.0003207636970815027
-0.1571569741 -0.1003156006 0.00026334496287154594 -0.0003035691975434151
-0.1518355161 -0.1003156006 0.00025485632775942277 -0.0002873182546882908
-0.1465140581 -0.1003156006 0.0002461734697172746 -0.0002710652767437867
-0.1411926001 -0.1003156006 0.0002375047110594594 -0.0002556652341597345
-0.1358711421 -0.1003156006 0.00022845734353409085 -0.0002422690471706008
-0.1305496842 -0.1003156006 0.00021940886398941016 -0.0002288729581108234
-0.1252282262 -0.1003156006 0.00020997972262256777 -0.00021546967885999378
-0.1199067682 -0.1003156006 0.00020075603532007611 -0.0002039274874686345
-0.1145853102 -0.1003156006 0.00019148091328977535 -0.0001927831905922227
-0.1092638522 -0.1003156006 0.00018198582322723143 -0.00018166699498304504
-0.1039423943 -0.1003156006 0.00017265893083437747 -0.000170700406457255
-0.09862093627 -0.1003156006 0.0001638035379364266 -0.00016163625418614186
-0.09329947084 -0.1003156006 0.0001547537994113014 -0.00015267243191307222
-0.08797801286 -0.1003156006 0.00014570361093685003 -0.00014370862288888353
-0.08265655488 -0.1003156006 0.00013674563433728007 -0.0001348371091082082
-0.0773350969 -0.1003156006 0.00012844797365073584 -0.00012745320229837507
-0.07201363891 -0.1003156006 0.00012015554170381558 -0.00012009021617511805
-0.06669218093 -0.1003156006 0.00011186240679962267 -0.00011272716094628903
-0.06137072667 -0.1003156006 0.00010344647780384065 -0.00010543160543730401
-0.05604926869 -0.1003156006 9.573167234500986e-05 -9.914498523462958e-05
-0.05072781071 -0.1003156006 8.812478074663333e-05 -9.30575530544064e-05
-0.045406349 -0.1003156006 8.056528694579416e-05 -8.694769472962912e-05
-0.04008489102 -0.1003156006 7.291106183696755e-05 -8.091443142108843e-05
-0.03476343304 -0.1003156006 6.557191899175064e-05 -7.519752244466958e-05
-0.02944197692 -0.1003156006 5.877884088161099e-05 -7.017860410337112e-05
-0.02412051894 -0.1003156006 5.196170213949663e-05 -6.51810160054669e-05
-0.01879905909 -0.1003156006 4.511257511470053e-05 -6.0209438242104206e-05
-0.01347760204 -0.1003156006 3.829722221072202e-05 -5.521306578699378e-05
-0.00815614406 -0.1003156006 3.1992193762784085e-05 -5.0611029920990795e-05
-0.00283468538 -0.1003156006 2.601214259769257e-05 -4.6325550010485264e-05
0.002486772602 -0.1003156006 1.998070754701277e-05 -4.2106635758904126e-05
0.007808230817 -0.1003156006 1.395157498946905e-05 -3.788577497692395e-05
0.0131296888 -0.1003156006 7.962649081307668e-06 -3.361206090147722e-05
0.01845114678 -0.1003156006 2.4084289592897295e-06 -2.9588993486196127e-05
0.02377260476 -0.1003156006 -2.878414550794456e-06 -2.5783309501170698e-05
0.02909406275 -0.1003156006 -8.189486498465005e-06 -2.2009079546243946e-05
0.03441552073 -0.1003156006 -1.3503502377803004e-05 -1.8234833142971613e-05
0.03973697871 -0.1003156006 -1.87942352434204e-05 -1.4432753409469918e-05
0.04505843669 -0.1003156006 -2.3843144546711726e-05 -1.0758073493655171e-05
0.05037989467 -0.1003156006 -2.853435765047344e-05 -7.3680278723516854e-06
0.05570135266 -0.1003156006 -3.3245983352350005e-05 -4.014497891718656e-06
0.06102281436 -0.1003156006 -3.796343044835432e-05 -6.594026463709253e-07
0.06634426862 -0.1003156006 -4.2659349896476504e-05 2.713610743647056e-06
0.0716657266 -0.1003156006 -4.73465292025442e-05 6.108201530577963e-06
0.07698718458 -0.1003156006 -5.15116135525988e-05 9.174249391446615e-06
0.08230864257 -0.1003156006 -5.566127093464826e-05 1.2205097715871962e-05
0.08763010055 -0.1003156006 -5.982316797910004e-05 1.5204211456622829e-05
0.09295155853 -0.1003156006 -6.396887826820632e-05 1.822583554164358e-05
0.09827301651 -0.1003156006 -6.81078515440352e-05 2.1267755880920367e-05
0.1035944745 -0.1003156006 -7.203113647538433e-05 2.4214354821985333e-05
0.1089159325 -0.1003156006 -7.553836988936749e-05 2.692927649860895e-05
0.1142373979 -0.1003156006 -7.904767454627957e-05 2.9644218808647192e-05
0.1195588559 -0.1003156006 -8.25311808030987e-05 3.240458897492966e-05
0.1248803139 -0.1003156006 -8.602337356653254e-05 3.5144319262918377e-05
0.1302017719 -0.1003156006 -8.952468477919501e-05 3.7879301926846054e-05
0.1355232298 -0.1003156006 -9.263309777527013e-05 4.056761336058302e-05
0.1408446878 -0.1003156006 -9.545239780550423e-05 4.3215818961751976e-05
0.1461661458 -0.1003156006 -9.827672950606757e-05 4.589963563240332e-05
0.1514876038 -0.1003156006 -0.00010110341663952291 4.858354384958699e-05
0.1568090618 -0.1003156006 -0.00010392659531871325 5.126739192773665e-05
0.1621305197 -0.1003156006 -0.00010674943096804424 5.3952525541847705e-05
0.1674519777 -0.1003156006 -0.00010923912149534752 5.667134747928388e-05
0.1727734357 -0.1003156006 -0.00011160762384769466 5.939814790644627e-05
0.1780948937 -0.1003156006 -0.00011397496060036098 6.212507258721026e-05
0.1834163517 -0.1003156006 -0.00011634399005999518 6.485183558716564e-05
0.1887378097 -0.1003156006 -0.00011870687839214476 6.758547459279578e-05
0.1940592676 -0.1003156006 -0.00012107447394867627 7.034520149257372e-05
0.1993807256 -0.1003156006 -0.00012318035396279356 7.305647742519234e-05
0.2047021836 -0.1003156006 -0.0001252047905400351 7.574321944808699e-05
0.2100236416 -0.1003156006 -0.00012722987961786864 7.842820272846883e-05
0.2153450996 -0.1003156006 -0.0001292361003582232 8.114156702826687e-05
0.2206665576 -0.1003156006 -0.00013125826010431627 8.385096352507463e-05
0.2259880155 -0.1003156006 -0.0001332799198371612 8.655718081107063e-05
0.2313094735 -0.1003156006 -0.0001350104315908064 8.920049094776397e-05
0.2366309315 -0.1003156006 -0.00013664485107315631 9.184751035835612e-05
0.2419523895 -0.1003156006 -0.0001382784350638237 9.4502709429673e-05
0.2472738475 -0.1003156006 -0.0001399151025916468 9.71587901507742e-05
0.2525953054 -0.1003156006 -0.00014155513656773354 9.981510708479742e-05
0.2579167783 -0.1003156006 -0.00014318880983903092 0.0001024943878617269
0.2632382214 -0.1003156006 -0.00014448840891900222 0.0001051285602781583
0.2685596943 -0.1003156006 -0.00014569335253137894 0.00010774394770480472
0.2738811374 -0.1003156006 -0.00014689945560579732 0.00011033817388399863
0.2792026103 -0.1003156006 -0.00014810725032116768 0.00011295045435541155
0.2845240533 -0.1003156006 -0.00014931097958138803 0.00011559477752083505
0.2898455262 -0.1003156006 -0.00015051399766257504 0.00011823911166925921
0.2951669693 -0.1003156006 -0.00015129655971702016 0.00012088035702936921
0.3004884422 -0.1003156006 -0.00015200461916614768 0.00012353635583336247
0.3058098853 -0.1003156006 -0.00015272242226508284 0.00012622788186524933
0.3111313581 -0.1003156006 -0.00015344009998095805 0.00012891948057992995
0.3164528012 -0.1003156006 -0.00015415724195247938 0.00013161085790011113
0.3217742741 -0.1003156006 -0.00015488588870053073 0.00013431280519723358
0.3270957172 -0.1003156006 -0.00015523718537112708 0.00013716903235429326
0.3324171901 -0.1003156006 -0.0001555858151488781 0.00014000833052432656
0.3377386332 -0.1003156006 -0.00015593480464769967 0.00014284764954831478
0.343060106 -0.1003156006 -0.0001562826977398733 0.00014569233080973478
0.3483815491 -0.1003156006 -0.00015664550968043212 0.00014857359452738556
0.353703022 -0.1003156006 -0.0001569569541734941 0.0001514422345155612
0.3590244651 -0.1003156006 -0.0001571158203290065 0.0001543125438221687
0.364345938 -0.1003156006 -0.0001572766393528318 0.00015718694568001926
0.369667381 -0.1003156006 -0.00015741792251215754 0.00016009817914515144
0.3749888539 -0.1003156006 -0.00015757116720047684 0.00016301017623379183
0.380310297 -0.1003156006 -0.0001577168208355607 0.0001658980748425775
0.3856317699 -0.1003156006 -0.000157626873863127 0.00016860359962467297
0.390953213 -0.1003156006 -0.0001574139030486971 0.00017132857357681294
0.3962746859 -0.1003156006 -0.0001571946120599984 0.00017403996723394768
0.4015961289 -0.1003156006 -0.0001569835443857911 0.00017675211374854012
0.4069176018 -0.1003156006 -0.00015677930263574826 0.0001794814912495512
0.4122390449 -0.1003156006 -0.0001563538149801802 0.00018222663967078117
0.4175605178 -0.1003156006 -0.00015559911915822362 0.00018493342880220224
0.4228819609 -0.1003156006 -0.00015482570755648712 0.0001875838784399196
0.4282034338 -0.1003156006 -0.00015407123687437426 0.00019026957118428638
0.4335248768 -0.1003156006 -0.00015329721789770484 0.00019298900809146195
0.4388463497 -0.1003156006 -0.00015244053301136627 0.00019570689630894137
0.4441677928 -0.1003156006 -0.0001512694531269021 0.00019846173167955848
0.4494892657 -0.1003156006 -0.0001501239573939656 0.00020125703914456364
0.4548107088 -0.1003156006 -0.00014898253409443275 0.0002040834907777951
0.4601321816 -0.1003156006 -0.0001478099716866044 0.00020685641293885433
0.4654536247 -0.1003156006 -0.0001465973974179038 0.0002095552540309523
0.4707750976 -0.1003156006 -0.00014527760304811136 0.0002122244518820898
0.4760965407 -0.1003156006 -0.00014390043194209798 0.00021487450971717853
0.4814180136 -0.1003156006 -0.0001425221502037732 0.00021752457594867246
0.4867394567 -0.1003156006 -0.00014115106185229805 0.00022018193620626316
0.4920609295 -0.1003156006 -0.00013974826934740484 0.000222553009353815
0.4973823726 -0.1003156006 -0.0001381780604933399 0.00022480141577556348
0.5027038455 -0.1003156006 -0.0001366030815944087 0.00022706070395102698
0.5080252886 -0.1003156006 -0.00013504530096205514 0.00022933274294656492
0.5133467317 -0.1003156006 -0.00013329841937125052 0.0002313737370487226
0.5186682343 -0.1003156006 -0.00013151411312683537 0.00023307352046121594
0.5239896774 -0.1003156006 -0.00012967055075912258 0.00023472526623397277
0.5293111205 -0.1003156006 -0.00012784587952060814 0.00023643506293743598
0.5346325636 -0.1003156006 -0.00012571676023139487 0.00023777776806567906
0.5399540663 -0.1003156006 -0.0001235638191012619 0.00023864745195604126
0.5452755094 -0.1003156006 -0.00012140523456837173 0.00023944043414179036
0.5505969524 -0.1003156006 -0.00011917489471701111 0.00024034736686646353
0.5559183955 -0.1003156006 -0.0001164119454489732 0.00024045192022345243
0.5612398982 -0.1003156006 -0.00011390219191632014 0.00024014147833320765
0.5665613413 -0.1003156006 -0.00011133151041268214 0.00023986747575325997
0.5718827844 -0.1003156006 -0.00010811358809857276 0.0002391995938616006
0.5772042274 -0.1003156006 -0.0001048668023729917 0.00023752924547815811
0.5825257301 -0.1003156006 -0.0001015791588293766 0.0002358103197090383
0.5878471732 -0.1003156006 -9.778413270791398e-05 0.0002336356767721324
0.5931686163 -0.1003156006 -9.349435845029704e-05 0.0002303930186433632
0.5984900594 -0.1003156006 -8.94017518093375e-05 0.00022728937233834867
0.6038115621 -0.1003156006 -8.457231166622525e-05 0.0002226324497820504
0.6091330051 -0.1003156006 -7.933436069992416e-05 0.00021777570605273846
0.6144544482 -0.1003156006 -7.36849677712634e-05 0.00021159038675817589
0.6197758913 -0.1003156006 -6.72429263377123e-05 0.00020457063423105955
0.625097394 -0.1003156006 -6.0008649801683055e-05 0.0001967727034508177
0.6304188371 -0.1003156006 -5.182096724693466e-05 0.0001870777324993665
0.6357402802 -0.1003156006 -4.245478138723333e-05 0.00017705018821422062
0.6410617828 -0.1003156006 -3.2080414472781553e-05 0.00016551999332596604
0.6463832259 -0.1003156006 -2.064837817247351e-05 0.00015245933286646245
0.651704669 -0.1003156006 -8.263737288558323e-06 0.0001382874985387891
0.6570261121 -0.1003156006 6.982046615203227e-06 0.00012256722071226028
0.6623476148 -0.1003156006 2.408603685486254e-05 0.00010524742537559142
0.6676690578 -0.1003156006 4.273401668005388e-05 8.63147591144675e-05
0.6729905009 -0.1003156006 6.55512992662105e-05 6.53791058261078e-05
0.678311944 -0.1003156006 9.101377383157048e-05 4.3785200554173165e-05
0.6836334467 -0.1003156006 0.00011932958560522903 2.0461834871295282e-05
0.6889548898 -0.1003156006 0.00015221183511985854 -4.721923670178897e-06
0.6942763329 -0.1003156006 0.0001898450630268617 -3.083102194419263e-05
0.6995977759 -0.1003156006 0.00023164692019027048 -5.77432603173468e-05
0.7049192786 -0.1003156006 0.0002785707760903338 -8.541288508386591e-05
0.7102407217 -0.1003156006 0.00033186602422312686 -0.0001132328053337619
0.7155621648 -0.1003156006 0.0003922613472379476 -0.00014065238842127486
0.7208836079 -0.1003156006 0.00045916176668920494 -0.000166378458209807
0.7262051105 -0.1003156006 0.0005330265915501352 -0.00019055232741035165
0.7315265536 -0.1003156006 0.0006148793584796131 -0.00021221304910178803
0.7368479967 -0.1003156006 0.0007076370207576563 -0.00022919572669816214
0.7421694398 -0.1003156006 0.0008082818513380706 -0.0002426588770047647
0.7474909425 -0.1003156006 0.0009131078016871658 -0.0002486991126050849
0.7528123856 -0.1003156006 0.001029036217847931 -0.0002473516684292418
0.7581338286 -0.1003156006 0.0011534665504654526 -0.0002377584708762838
-0.3008363545 -0.09699654579 9.63322127353685e-05 -0.0008521916780808546
-0.2955148816 -0.09699654579 0.00011522015659990001 -0.0008438439634011372
-0.2901934385 -0.09699654579 0.00013393209539292467 -0.0008340405541269569
-0.2848719656 -0.09699654579 0.0001515417724635307 -0.0008225429945187869
-0.2795505226 -0.09699654579 0.00017002613285063554 -0.0008100011098663398
-0.2742290497 -0.09699654579 0.000188889816348025 -0.0007958149733347879
-0.2689076066 -0.09699654579 0.00020838181548480633 -0.0007792093911727276
-0.2635861337 -0.09699654579 0.00022680091845065877 -0.0007619203565627253
-0.2582646906 -0.09699654579 0.00024344782450173258 -0.000743195411447353
-0.2529432178 -0.09699654579 0.0002602947920220285 -0.0007217661352301247
-0.2476217598 -0.09699654579 0.00027767674100623004 -0.0006978524917700257
-0.2423003018 -0.09699654579 0.0002925937557121187 -0.0006732615540227298
-0.2369788438 -0.09699654579 0.0003023460544102669 -0.0006479104496775528
-0.2316573858 -0.09699654579 0.0003110237058252179 -0.0006205109913202308
-0.2263359278 -0.09699654579 0.00031950036967164986 -0.000591231006217491
-0.2210144699 -0.09699654579 0.00032257903086754087 -0.0005662989138934266
-0.2156930119 -0.09699654579 0.00032360831298142736 -0.0005409443121079155
-0.2103715539 -0.09699654579 0.00032413891519506504 -0.0005146209398220697
-0.2050500959 -0.09699654579 0.0003230696007396799 -0.0004905002125479979
-0.1997286379 -0.09699654579 0.00032118595928818755 -0.00046638260467371723
-0.19440718 -0.09699654579 0.00031913228609621125 -0.00044206375520037036
-0.189085722 -0.09699654579 0.00031491401491194653 -0.00041958709207002594
-0.183764264 -0.09699654579 0.0003102880645363944 -0.0003975877219218919
-0.178442806 -0.09699654579 0.0003047958575369167 -0.0003754552986717715
-0.173121348 -0.09699654579 0.0002981108884496885 -0.00035542797991227563
-0.16779989 -0.09699654579 0.0002902691687288723 -0.0003359669606607525
-0.1624784321 -0.09699654579 0.00028236118273145677 -0.0003161346873940357
-0.1571569741 -0.09699654579 0.0002737002937849333 -0.0002982241493315123
-0.1518355161 -0.09699654579 0.0002648435128042673 -0.00028178921322742965
-0.1465140581 -0.09699654579 0.00025576168079102844 -0.0002652943481725529
-0.1411926001 -0.09699654579 0.00024663472725776407 -0.00024975984597924044
-0.1358711421 -0.09699654579 0.00023713114248919011 -0.00023635496399615813
-0.1305496842 -0.09699654579 0.00022737092669797358 -0.00022300761478997365
-0.1252282262 -0.09699654579 0.000217631955411899 -0.00020960332311582096
-0.1199067682 -0.09699654579 0.00020787346953955076 -0.0001979500743939016
-0.1145853102 -0.09699654579 0.00019824627147682923 -0.00018686588216910654
-0.1092638522 -0.09699654579 0.00018852323326332826 -0.00017576922875611747
-0.1039423943 -0.09699654579 0.00017863933162138218 -0.0001648250418847629
-0.09862093627 -0.09699654579 0.00016946281401857618 -0.00015589022755602876
-0.09329947084 -0.09699654579 0.00016019080744124632 -0.0001469833262942213
-0.08797801286 -0.09699654579 0.00015081580853356532 -0.00013811776709537801
-0.08265655488 -0.09699654579 0.0001416256129644066 -0.00012931111388504008
-0.0773350969 -0.09699654579 0.0001331795352145239 -0.00012202739584792982
-0.07201363891 -0.09699654579 0.0001246405643021115 -0.0001148173620106579
-0.06669218093 -0.09699654579 0.00011610614170513011 -0.00010760568139759968
-0.06137072667 -0.09699654579 0.00010754553859465251 -0.00010038388214301427
-0.05604926869 -0.09699654579 9.963643072448232e-05 -9.418839416911233e-05
-0.05072781071 -0.09699654579 9.190229732561858e-05 -8.820218172162021e-05
-0.045406349 -0.09699654579 8.417039197252185e-05 -8.22159638633495e-05
-0.04008489102 -0.09699654579 7.637723970236121e-05 -7.627311341892629e-05
-0.03476343304 -0.09699654579 6.886455871335328e-05 -7.068389508084355e-05
-0.02944197692 -0.09699654579 6.193989340005117e-05 -6.579549418040964e-05
-0.02412051894 -0.09699654579 5.502703138679105e-05 -6.088410382549853e-05
-0.01879905909 -0.09699654579 4.810272544705884e-05 -5.599461706937651e-05
-0.01347760204 -0.09699654579 4.1156607108120026e-05 -5.113230504431535e-05
-0.00815614406 -0.09699654579 3.4748607756550896e-05 -4.6652593090488796e-05
-0.00283468538 -0.09699654579 2.868367526305057e-05 -4.248025517928456e-05
0.002486772602 -0.09699654579 2.2604921513538585e-05 -3.8335146472736e-05
0.007808230817 -0.09699654579 1.6520821611696522e-05 -3.4191196307250686e-05
0.0131296888 -0.09699654579 1.0450922937377295e-05 -3.003123239209421e-05
0.01845114678 -0.09699654579 4.8327389595225294e-06 -2.6109913833094598e-05
0.02377260476 -0.09699654579 -5.079790095205822e-07 -2.2376517410973005e-05
0.02909406275 -0.09699654579 -5.861463295666152e-06 -1.8675057599668768e-05
0.03441552073 -0.09699654579 -1.1219149422201323e-05 -1.4975452536490594e-05
0.03973697871 -0.09699654579 -1.656036907415208e-05 -1.1244209579700057e-05
0.04505843669 -0.09699654579 -2.1662073614908667e-05 -7.656940029477726e-06
0.05037989467 -0.09699654579 -2.6408684960193445e-05 -4.338721932449639e-06
0.05570135266 -0.09699654579 -3.115792759249308e-05 -1.0341453895928451e-06
0.06102281436 -0.09699654579 -3.592100838529793e-05 2.2530186664962347e-06
0.06634426862 -0.09699654579 -4.066430267910531e-05 5.575272552364926e-06
0.0716657266 -0.09699654579 -4.540657266211508e-05 8.897530490947494e-06
0.07698718458 -0.09699654579 -4.9621222614975856e-05 1.1883107819796019e-05
0.08230864257 -0.09699654579 -5.382793634601379e-05 1.4839665295908623e-05
0.08763010055 -0.09699654579 -5.802170315554848e-05 1.7797643202012345e-05
0.09295155853 -0.09699654579 -6.221394404063907e-05 2.0761223219965305e-05
0.09827301651 -0.09699654579 -6.641188546703108e-05 2.3728585912963363e-05
0.1035944745 -0.09699654579 -7.036870413787339e-05 2.658893334792209e-05
0.1089159325 -0.09699654579 -7.391408418433448e-05 2.9215538131981786e-05
0.1142373979 -0.09699654579 -7.743992397647824e-05 3.186700027021553e-05
0.1195588559 -0.09699654579 -8.096527758790697e-05 3.454644437502156e-05
0.1248803139 -0.09699654579 -8.448915071979188e-05 3.722585306720186e-05
0.1302017719 -0.09699654579 -8.801191621954128e-05 3.987833862453996e-05
0.1355232298 -0.09699654579 -9.111903469164258e-05 4.248375586026594e-05
0.1408446878 -0.09699654579 -9.394787243104799e-05 4.5096315552137164e-05
0.1461661458 -0.09699654579 -9.677544994568535e-05 4.7709533257254245e-05
0.1514876038 -0.09699654579 -9.959991129780736e-05 5.0322586530266484e-05
0.1568090618 -0.09699654579 -0.00010242452108882398 5.293522827665639e-05
0.1621305197 -0.09699654579 -0.00010524530853648721 5.556875631505496e-05
0.1674519777 -0.09699654579 -0.00010773007799380793 5.82582135135126e-05
0.1727734357 -0.09699654579 -0.00011009331867229766 6.0950967643019725e-05
0.1780948937 -0.09699654579 -0.00011246044031549753 6.362675002914799e-05
0.1834163517 -0.09699654579 -0.00011482440289690282 6.630705820280492e-05
0.1887378097 -0.09699654579 -0.00011719060600365104 6.901841814814946e-05
0.1940592676 -0.09699654579 -0.00011955652339226725 7.172964258131404e-05
0.1993807256 -0.09699654579 -0.00012165857447068113 7.439045349657373e-05
0.2047021836 -0.09699654579 -0.00012369288150022802 7.70310980925951e-05
0.2100236416 -0.09699654579 -0.000125712526755433 7.969551169021262e-05
0.2153450996 -0.09699654579 -0.0001277387873422312 8.236665097844556e-05
0.2206665576 -0.09699654579 -0.00012976734876451654 8.50376131632922e-05
0.2259880155 -0.09699654579 -0.00013178762756505555 8.770936819075425e-05
0.2313094735 -0.09699654579 -0.00013350363923136103 9.032735207977418e-05
0.2366309315 -0.09699654579 -0.00013514782696153504 9.292949577541465e-05
0.2419523895 -0.09699654579 -0.00013679537313042502 9.553141402525252e-05
0.2472738475 -0.09699654579 -0.00013843989672816874 9.813354833338153e-05
0.2525953054 -0.09699654579 -0.00014007646104742254 0.00010075953548555563
0.2579167783 -0.09699654579 -0.00014171397484632862 0.00010339955726851222
0.2632382214 -0.09699654579 -0.00014299923820598807 0.00010596091989300064
0.2685596943 -0.09699654579 -0.00014420375240966693 0.00010850257783552877
0.2738811374 -0.09699654579 -0.00014540514476860203 0.00011107251347592286
0.2792026103 -0.09699654579 -0.00014660347925884185 0.00011366581402375588
0.2845240533 -0.09699654579 -0.00014780010789734404 0.00011625659799494273
0.2898455262 -0.09699654579 -0.00014900373179244626 0.00011883427469781312
0.2951669693 -0.09699654579 -0.00014974704196387252 0.00012143649769811351
0.3004884422 -0.09699654579 -0.00015044364082078296 0.00012405685315572396
0.3058098853 -0.09699654579 -0.00015114477015323817 0.00012667592026221485
0.3111313581 -0.09699654579 -0.0001518469108646351 0.0001292948326797952
0.3164528012 -0.09699654579 -0.0001525506365975029 0.0001319433926724066
0.3217742741 -0.09699654579 -0.0001532544639808074 0.00013462052435019888
0.3270957172 -0.09699654579 -0.00015357297941965086 0.00013743405197431946
0.3324171901 -0.09699654579 -0.0001538914311088767 0.00014024772045475494
0.3377386332 -0.09699654579 -0.00015421990906043238 0.00014308320434685073
0.343060106 -0.09699654579 -0.0001545570281087897 0.00014593513627742373
0.3483815491 -0.09699654579 -0.00015488812676268444 0.00014876563403695415
0.353703022 -0.09699654579 -0.0001551779807832018 0.00015159278257091783
0.3590244651 -0.09699654579 -0.00015535205143931853 0.00015445155120174535
0.364345938 -0.09699654579 -0.0001555100468771258 0.0001573074930783578
0.369667381 -0.09699654579 -0.0001556758029125563 0.00016016106191461504
0.3749888539 -0.09699654579 -0.00015584062153586132 0.00016301888574472704
0.380310297 -0.09699654579 -0.0001560032124052826 0.00016590927314043548
0.3856317699 -0.09699654579 -0.00015589804947562305 0.0001685995553437848
0.390953213 -0.09699654579 -0.00015571637329183017 0.00017125731352980825
0.3962746859 -0.09699654579 -0.00015553962560444724 0.00017387271095619752
0.4015961289 -0.09699654579 -0.00015535048634446663 0.0001765515863342714
0.4069176018 -0.09699654579 -0.00015514233015816 0.00017923356774211962
0.4122390449 -0.09699654579 -0.0001547025988248734 0.00018186375286788836
0.4175605178 -0.09699654579 -0.0001539116073025712 0.00018444321076253317
0.4228819609 -0.09699654579 -0.00015314206327075617 0.00018710751955810392
0.4282034338 -0.09699654579 -0.0001523577578398732 0.00018975838827387038
0.4335248768 -0.09699654579 -0.0001515742085125719 0.00019241564765663016
0.4388463497 -0.09699654579 -0.00015072385167242438 0.00019509346970022188
0.4441677928 -0.09699654579 -0.00014956242832653315 0.00019783207195189952
0.4494892657 -0.09699654579 -0.00014839095876220315 0.00020056195176298364
0.4548107088 -0.09699654579 -0.00014722140587480323 0.00020329533928235835
0.4601321816 -0.09699654579 -0.0001460764987162995 0.00020607011698065797
0.4654536247 -0.09699654579 -0.00014485774623904712 0.00020876554161423095
0.4707750976 -0.09699654579 -0.00014356158673133442 0.00021142073857536025
0.4760965407 -0.09699654579 -0.00014225732939066483 0.00021403254594057336
0.4814180136 -0.09699654579 -0.0001409624657852159 0.00021668912635270312
0.4867394567 -0.09699654579 -0.00013961208847723937 0.0002193228019442334
0.4920609295 -0.09699654579 -0.00013816349012628278 0.00022160902037197166
0.4973823726 -0.09699654579 -0.00013666607616977385 0.00022382592305432707
0.5027038455 -0.09699654579 -0.0001352150964754055 0.00022614879972950375
0.5080252886 -0.09699654579 -0.00013368896686597912 0.00022837797909430586
0.5133467317 -0.09699654579 -0.0001320943460914261 0.00023029842718221393
0.5186682343 -0.09699654579 -0.00013039948325081597 0.0002319488867694599
0.5239896774 -0.09699654579 -0.00012854787439705356 0.00023359126284360865
0.5293111205 -0.09699654579 -0.00012680761340244127 0.0002352663442559446
0.5346325636 -0.09699654579 -0.00012497824017639216 0.0002364753903478872
0.5399540663 -0.09699654579 -0.00012294425228832648 0.00023728216923474244
0.5452755094 -0.09699654579 -0.00012078081849871728 0.00023806818029892558
0.5505969524 -0.09699654579 -0.00011875764247818056 0.0002388809764521464
0.5559183955 -0.09699654579 -0.00011656455575937948 0.00023880017688116337
0.5612398982 -0.09699654579 -0.00011397742262877002 0.00023847143140326633
0.5665613413 -0.09699654579 -0.00011137767881775598 0.00023813899276374517
0.5718827844 -0.09699654579 -0.00010896016477947094 0.0002372040171617784
0.5772042274 -0.09699654579 -0.00010587402058562527 0.0002355095292898006
0.5825257301 -0.09699654579 -0.00010279110451710619 0.00023381607993464484
0.5878471732 -0.09699654579 -9.963932945226122e-05 0.000231330037017259
0.5931686163 -0.09699654579 -9.576951122106263e-05 0.00022797570922418234
0.5984900594 -0.09699654579 -9.212465967676918e-05 0.00022443004327847953
0.6038115621 -0.09699654579 -8.757434538899498e-05 0.0002197032498737503
0.6091330051 -0.09699654579 -8.304902126983957e-05 0.00021406391852660792
0.6144544482 -0.09699654579 -7.771341482853213e-05 0.00020811170795400214
0.6197758913 -0.09699654579 -7.165433512409527e-05 0.00020022608429775407
0.625097394 -0.09699654579 -6.526829370645328e-05 0.00019207258239980717
0.6304188371 -0.09699654579 -5.754915354624083e-05 0.00018228883846260662
0.6357402802 -0.09699654579 -4.98534870199816e-05 0.00017122541413665192
0.6410617828 -0.09699654579 -4.041436918262421e-05 0.0001592314895685081
0.6463832259 -0.09699654579 -2.9702876171932168e-05 0.0001452462844103012
0.651704669 -0.09699654579 -1.8009779467757127e-05 0.00012984339127724155
0.6570261121 -0.09699654579 -3.3238306401430842e-06 0.00011258913271962116
0.6623476148 -0.09699654579 1.2829066101885567e-05 9.409235846456632e-05
0.6676690578 -0.09699654579 3.095843790360038e-05 7.391613169698294e-05
0.6729905009 -0.09699654579 5.205006563665752e-05 5.168516663869163e-05
0.678311944 -0.09699654579 7.565518381549189e-05 2.7237937054366715e-05
0.6836334467 -0.09699654579 0.00010255155241173996 1.7503676004229009e-06
0.6889548898 -0.09699654579 0.0001342518416602991 -2.5414317637365924e-05
0.6942763329 -0.09699654579 0.0001709185734970186 -5.4327450686977386e-05
0.6995977759 -0.09699654579 0.00021211903261239204 -8.531425980267562e-05
0.7049192786 -0.09699654579 0.0002586133712765676 -0.00011639824764999715
0.7102407217 -0.09699654579 0.00031166423095640473 -0.00014788085648759892
0.7155621648 -0.09699654579 0.00037313295969929245 -0.00017919366602797996
0.7208836079 -0.09699654579 0.00044183232165047147 -0.0002109680087258815
0.7262051105 -0.09699654579 0.0005183847990899006 -0.00024073812754249403
0.7315265536 -0.09699654579 0.0006024177250975471 -0.00026708863247587616
0.7368479967 -0.09699654579 0.0006957613788817687 -0.0002910000058639352
0.7421694398 -0.09699654579 0.0007990798714773103 -0.00030805196213216625
0.7474909425 -0.09699654579 0.0009108744832082162 -0.00032089134577185707
0.7528123856 -0.09699654579 0.0010320643120295206 -0.00032396800392342896
0.7581338286 -0.09699654579 0.0011608569311339896 -0.000318222907687801
-0.3008363545 -0.09367749095 0.00010055504233277344 -0.0008634503904930067
-0.2955148816 -0.09367749095 0.00012021792233946 -0.0008557130340517779
-0.2901934385 -0.09367749095 0.00014084739441671667 -0.0008455688164404187
-0.2848719656 -0.09367749095 0.00015977282264557148 -0.0008346811055679386
-0.2795505226 -0.09367749095 0.00017834180831316292 -0.0008220619979327584