VARIABLES = X,Y,phix,phiy
ZONE I=200,J=200,F=POINT 
-0.3008363545 -0.1003156006 -0.00016535202648358514 0.0011741248649443656
-0.2955148816 -0.1003156006 -0.00013037893063936074 0.0012018335127551782
-0.2901934385 -0.1003156006 -8.165705021094862e-05 0.0012142056414967562
-0.2848719656 -0.1003156006 -2.79340548437092e-05 0.0012303569356088527
-0.2795505226 -0.1003156006 2.667564817587641e-05 0.0012699130539210886
-0.2742290497 -0.1003156006 7.782292679062383e-05 0.0013324461284203266
-0.2689076066 -0.1003156006 0.00011752755513522733 0.0014150914480319104
-0.2635861337 -0.1003156006 9.092230594837427e-05 0.0014169710287867386
-0.2582646906 -0.1003156006 3.601281493293204e-05 0.0013724910857236875
-0.2529432178 -0.1003156006 -2.657146274976568e-05 0.0013120275756180987
-0.2476217598 -0.1003156006 -0.00010922356472796146 0.001242549820472188
-0.2423003018 -0.1003156006 -0.00023394334042630183 0.0011973757774347035
-0.2369788438 -0.1003156006 -0.0003679351208963066 0.0011767468490063739
-0.2316573858 -0.1003156006 -0.0005276100277428324 0.0011420875663096192
-0.2263359278 -0.1003156006 -0.0006587640420214014 0.0010904778184850118
-0.2210144699 -0.1003156006 -0.0005782976459257316 0.0010491057749528665
-0.2156930119 -0.1003156006 -0.00048257183106779834 0.0010028216667210524
-0.2103715539 -0.1003156006 -0.00036237273192540014 0.0009814860281609065
-0.2050500959 -0.1003156006 -0.00045296987946442956 0.0009638330847843517
-0.1997286379 -0.1003156006 -0.0005604567346068182 0.0009533413825263189
-0.19440718 -0.1003156006 -0.0006894067768056601 0.000928581926671959
-0.189085722 -0.1003156006 -0.0007275348203293953 0.000849112112564154
-0.183764264 -0.1003156006 -0.0007832499291343227 0.0007865362431745103
-0.178442806 -0.1003156006 -0.0008355080526633874 0.000715813336733578
-0.173121348 -0.1003156006 -0.0008352951965569988 0.000624331139694324
-0.16779989 -0.1003156006 -0.0008197565469946127 0.0005369006165793296
-0.1624784321 -0.1003156006 -0.0008058091299786265 0.0004356148736987633
-0.1571569741 -0.1003156006 -0.000763557429250129 0.0003313660252237708
-0.1518355161 -0.1003156006 -0.0006998852551189216 0.0002269967886175893
-0.1465140581 -0.1003156006 -0.0006341148796279385 0.0001233684866493794
-0.1411926001 -0.1003156006 -0.000549305833044221 3.619268979583646e-05
-0.1358711421 -0.1003156006 -0.000439032696042985 -1.7182378519015085e-05
-0.1305496842 -0.1003156006 -0.00032752314286246494 -7.058819332258622e-05
-0.1252282262 -0.1003156006 -0.00021215537994865785 -0.00011684866900227666
-0.1199067682 -0.1003156006 -0.00013118083326329132 -0.0001244262935672913
-0.1145853102 -0.1003156006 -5.66567311616931e-05 -0.00012267216935297025
-0.1092638522 -0.1003156006 1.8308351754655847e-05 -0.00011911431046972965
-0.1039423943 -0.1003156006 9.410168525747297e-05 -0.00011671018403614007
-0.09862093627 -0.1003156006 0.0001797483920265975 -0.00012318218771598588
-0.09329947084 -0.1003156006 0.0002735792840212769 -0.0001305189699800427
-0.08797801286 -0.1003156006 0.00036632923297006813 -0.00013786398157645662
-0.08265655488 -0.1003156006 0.000462317512006413 -0.00014498434639117217
-0.0773350969 -0.1003156006 0.0005488726202282626 -0.00014532613061908855
-0.07201363891 -0.1003156006 0.0006352949072597457 -0.0001459639794820866
-0.06669218093 -0.1003156006 0.0007221436547878716 -0.00014660035865633357
-0.06137072667 -0.1003156006 0.0008069299148319424 -0.000142713045478898
-0.05604926869 -0.1003156006 0.0008511558911434277 -0.00011826221993709969
-0.05072781071 -0.1003156006 0.0008870593911908882 -9.013922077989167e-05
-0.045406349 -0.1003156006 0.0009250053071807141 -6.294095921983326e-05
-0.04008489102 -0.1003156006 0.0009596843446838666 -3.3717618148080705e-05
-0.03476343304 -0.1003156006 0.000989463224427135 -6.018066061293207e-06
-0.02944197692 -0.1003156006 0.0010107390399249118 1.8025208253461223e-05
-0.02412051894 -0.1003156006 0.0010313693645681585 4.2719607121196194e-05
-0.01879905909 -0.1003156006 0.001052436277404226 6.837667206430854e-05
-0.01347760204 -0.1003156006 0.0010725592275152376 9.300297485182837e-05
-0.00815614406 -0.1003156006 0.0010776913517505933 0.00011127142839850075
-0.00283468538 -0.1003156006 0.0010696710526660923 0.00012449155330120724
0.002486772602 -0.1003156006 0.0010574140326386594 0.00014034932885901444
0.007808230817 -0.1003156006 0.0010457840543475888 0.00015618169555505393
0.0131296888 -0.1003156006 0.0010367687512327032 0.00016987799853074938
0.01845114678 -0.1003156006 0.001025644701358936 0.00015368779516524662
0.02377260476 -0.1003156006 0.001012297770778757 0.00011390331645178327
0.02909406275 -0.1003156006 0.000993749957750062 7.197341724336517e-05
0.03441552073 -0.1003156006 0.0009759182535666534 3.0014037761605828e-05
0.03973697871 -0.1003156006 0.0009612068226051221 -1.002418757133882e-05
0.04505843669 -0.1003156006 0.0009694894367562519 -5.060995538837538e-05
0.05037989467 -0.1003156006 0.001015992236756398 -9.51622811711442e-05
0.05570135266 -0.1003156006 0.0010619522818232604 -0.00014222137611128363
0.06102281436 -0.1003156006 0.001107374465420043 -0.0001898643845771398
0.06634426862 -0.1003156006 0.0011545797282820475 -0.00023518060567035738
0.0716657266 -0.1003156006 0.0012015874368836255 -0.0002791437033605746
0.07698718458 -0.1003156006 0.0012650628662526837 -0.0002575709298971215
0.08230864257 -0.1003156006 0.0013319613402461095 -0.0002306900509289444
0.08763010055 -0.1003156006 0.001399248384780193 -0.00020259126116898608
0.09295155853 -0.1003156006 0.0014646408374656547 -0.00017564515278754985
0.09827301651 -0.1003156006 0.0015300359510228773 -0.0001494585353201625
0.1035944745 -0.1003156006 0.0015718166438440412 -0.00011248953676355686
0.1089159325 -0.1003156006 0.0015629278628357924 -5.327303577484379e-05
0.1142373979 -0.1003156006 0.0015529726172910307 5.963731843814126e-06
0.1195588559 -0.1003156006 0.0015484023858108624 5.957241065721838e-05
0.1248803139 -0.1003156006 0.001541768651792538 0.00011518547231354884
0.1302017719 -0.1003156006 0.0015339777116601637 0.00017214482221420741
0.1355232298 -0.1003156006 0.0014978048904982218 0.0001912242344979375
0.1408446878 -0.1003156006 0.0014416533884661696 0.00018168898070428728
0.1461661458 -0.1003156006 0.0013907842174280974 0.00017244231431037864
0.1514876038 -0.1003156006 0.0013399991321662878 0.00016321760537764475
0.1568090618 -0.1003156006 0.001289730166700987 0.00015398170414350671
0.1621305197 -0.1003156006 0.001238220561227835 0.00014472470283306905
0.1674519777 -0.1003156006 0.0012261247344910189 0.00011103200676585603
0.1727734357 -0.1003156006 0.0012297334466873672 6.543295608274086e-05
0.1780948937 -0.1003156006 0.0012335966637411868 1.9859716483514524e-05
0.1834163517 -0.1003156006 0.0012375170958891402 -2.5727307542170752e-05
0.1887378097 -0.1003156006 0.00124121125930029 -6.947556046355332e-05
0.1940592676 -0.1003156006 0.0012442866403410478 -0.00011007089414673333
0.1993807256 -0.1003156006 0.0012723181291805163 -0.00011919412268790255
0.2047021836 -0.1003156006 0.001308291508297164 -0.00011783391944344579
0.2100236416 -0.1003156006 0.001343996286222302 -0.00011673043121243122
0.2153450996 -0.1003156006 0.0013780673171386515 -0.00011709027512657858
0.2206665576 -0.1003156006 0.0014117259331246222 -0.00011666486724985031
0.2259880155 -0.1003156006 0.0014467027201582041 -0.00011608827460486506
0.2313094735 -0.1003156006 0.001457401838674917 -0.00010486061924117798
0.2366309315 -0.1003156006 0.001462200163292407 -9.244783825391728e-05
0.2419523895 -0.1003156006 0.001466681472329598 -8.089320841593193e-05
0.2472738475 -0.1003156006 0.0014725715069408023 -6.901551048182787e-05
0.2525953054 -0.1003156006 0.0014745810175572206 -5.744008382257797e-05
0.2579167783 -0.1003156006 0.001477838125595173 -4.665413019245244e-05
0.2632382214 -0.1003156006 0.001472647273722776 -4.885880447096599e-05
0.2685596943 -0.1003156006 0.0014658772443507503 -5.436392433909027e-05
0.2738811374 -0.1003156006 0.0014599052968041247 -6.071024437034229e-05
0.2792026103 -0.1003156006 0.0014544669397558306 -6.625388761467267e-05
0.2845240533 -0.1003156006 0.0014485997674577539 -7.140405868415326e-05
0.2898455262 -0.1003156006 0.0014426794401963755 -7.655753574197305e-05
0.2951669693 -0.1003156006 0.0014476770577850646 -7.437766198202598e-05
0.3004884422 -0.1003156006 0.0014540751940521396 -7.08209118710154e-05
0.3058098853 -0.1003156006 0.0014604987256845116 -6.80776415388199e-05
0.3111313581 -0.1003156006 0.001465866499934915 -6.535153882567576e-05
0.3164528012 -0.1003156006 0.0014722973215199587 -6.265070181941863e-05
0.3217742741 -0.1003156006 0.0014776853392169849 -5.990502524192722e-05
0.3270957172 -0.1003156006 0.0014772903969998974 -4.658317396030445e-05
0.3324171901 -0.1003156006 0.001478570390638167 -3.323963767493654e-05
0.3377386332 -0.1003156006 0.00147833284958817 -1.970095808113949e-05
0.343060106 -0.1003156006 0.0014794298756677256 -6.3678150333821085e-06
0.3483815491 -0.1003156006 0.0014786053815551829 6.080629291090831e-06
0.353703022 -0.1003156006 0.0014729413865450457 2.0345687235994802e-05
0.3590244651 -0.1003156006 0.001455220584834369 3.843936728098614e-05
0.364345938 -0.1003156006 0.0014388512104680582 5.6285837198638113e-05
0.369667381 -0.1003156006 0.001421644544300699 7.193618361769102e-05
0.3749888539 -0.1003156006 0.0014033756606579553 8.789872030785674e-05
0.380310297 -0.1003156006 0.001387434619112186 0.00010433354032136085
0.3856317699 -0.1003156006 0.0013498935370819564 0.00012143489916994319
0.390953213 -0.1003156006 0.001308745128694911 0.00013431983578870448
0.3962746859 -0.1003156006 0.0012675386646044111 0.00014709693338093698
0.4015961289 -0.1003156006 0.0012287062503292536 0.00016000572008139326
0.4069176018 -0.1003156006 0.001190477542446062 0.00017315731433019234
0.4122390449 -0.1003156006 0.0011470945754547203 0.00017267876180455965
0.4175605178 -0.1003156006 0.0010870718077140064 0.0001568034297856216
0.4228819609 -0.1003156006 0.00102454479770349 0.00014161002005553264
0.4282034338 -0.1003156006 0.0009638261702498987 0.0001259434933861876
0.4335248768 -0.1003156006 0.0009063182175173531 0.00010985604732811522
0.4388463497 -0.1003156006 0.0008516250929192479 8.415004799137902e-05
0.4441677928 -0.1003156006 0.0008037107864182209 3.179083366350618e-05
0.4494892657 -0.1003156006 0.0007562446608088567 -2.0063426665582643e-05
0.4548107088 -0.1003156006 0.0007126869723249463 -6.931665497162817e-05
0.4601321816 -0.1003156006 0.0006663910915233389 -0.00011996537378705798
0.4654536247 -0.1003156006 0.0006321466655860838 -0.00017504583317541828
0.4707750976 -0.1003156006 0.000617940113425036 -0.00023581617760633802
0.4760965407 -0.1003156006 0.000602093036734367 -0.00029400054175593367
0.4814180136 -0.1003156006 0.0005871852261051256 -0.0003521636812893248
0.4867394567 -0.1003156006 0.0005725272538589445 -0.00041022824870310255
0.4920609295 -0.1003156006 0.0005698406479162481 -0.000457439238625936
0.4973823726 -0.1003156006 0.0005711257709280392 -0.000501307558200799
0.5027038455 -0.1003156006 0.0005727315281085271 -0.0005451985166578329
0.5080252886 -0.1003156006 0.0005747347688749611 -0.0005892176743650964
0.5133467317 -0.1003156006 0.0005721151221659697 -0.0006265755072159988
0.5186682343 -0.1003156006 0.0005680303664069457 -0.0006555123793305617
0.5239896774 -0.1003156006 0.0005648233926801011 -0.0006843282437496104
0.5293111205 -0.1003156006 0.0005599639185898936 -0.0007136427325377819
0.5346325636 -0.1003156006 0.000551252583574247 -0.0007424523463323214
0.5399540663 -0.1003156006 0.000534133316482554 -0.0007672385948408177
0.5452755094 -0.1003156006 0.0005173197023368556 -0.0007911701385808176
0.5505969524 -0.1003156006 0.0004997459314154217 -0.0008166217649920562
0.5559183955 -0.1003156006 0.00047407355422851376 -0.0008461311208728605
0.5612398982 -0.1003156006 0.0004454254359017581 -0.0008742177336604422
0.5665613413 -0.1003156006 0.000415339773497111 -0.0009027482910377862
0.5718827844 -0.1003156006 0.00038452714810573776 -0.0009362906232665621
0.5772042274 -0.1003156006 0.00034824271455367574 -0.0009735969610695094
0.5825257301 -0.1003156006 0.0003097937353605486 -0.0010110509879748058
0.5878471732 -0.1003156006 0.0002740173887894699 -0.0010522323436330382
0.5931686163 -0.1003156006 0.0002335017663541815 -0.0010982107196033943
0.5984900594 -0.1003156006 0.0001946445900945571 -0.0011440778232891858
0.6038115621 -0.1003156006 0.00015365981899190194 -0.0011947262265401242
0.6091330051 -0.1003156006 0.00011580971097443257 -0.0012466506282237944
0.6144544482 -0.1003156006 7.393637152146369e-05 -0.0013012512572478502
0.6197758913 -0.1003156006 3.481101738877193e-05 -0.00135839637395858
0.625097394 -0.1003156006 -7.698527844287064e-06 -0.0014173678304337128
0.6304188371 -0.1003156006 -5.146538334334923e-05 -0.0014779510930207362
0.6357402802 -0.1003156006 -9.295512173983442e-05 -0.0015396892522820064
0.6410617828 -0.1003156006 -0.0001357257382250766 -0.0016043091163810712
0.6463832259 -0.1003156006 -0.00017591146509709444 -0.0016685820011579017
0.651704669 -0.1003156006 -0.0002199748160766061 -0.0017342612267925953
0.6570261121 -0.1003156006 -0.0002628449784040956 -0.0018014034301652017
0.6623476148 -0.1003156006 -0.0003083742857197113 -0.0018704076342735583
0.6676690578 -0.1003156006 -0.0003554860603918345 -0.0019385380051877318
0.6729905009 -0.1003156006 -0.00040662729707879316 -0.0020092704241471467
0.678311944 -0.1003156006 -0.00045800615327053147 -0.002080714145159493
0.6836334467 -0.1003156006 -0.0005127401550018743 -0.0021528589118360655
0.6889548898 -0.1003156006 -0.000570915998835038 -0.002230009510948322
0.6942763329 -0.1003156006 -0.0006317375587413778 -0.0023018083578687817
0.6995977759 -0.1003156006 -0.0006981302418867035 -0.002377564395863147
0.7049192786 -0.1003156006 -0.0007708586463492366 -0.002456963129110296
0.7102407217 -0.1003156006 -0.0008548118629874297 -0.0025406833752867424
0.7155621648 -0.1003156006 -0.000942662635565535 -0.002627306497772057
0.7208836079 -0.1003156006 -0.0010375855727230061 -0.0027185144287844533
0.7262051105 -0.1003156006 -0.001140144016472081 -0.0028160261765485567
0.7315265536 -0.1003156006 -0.0012532370059932338 -0.0029201121200876493
0.7368479967 -0.1003156006 -0.0013752651134157489 -0.0030371198235774693
0.7421694398 -0.1003156006 -0.00150763914834123 -0.0031607280135331093
0.7474909425 -0.1003156006 -0.001649727571027495 -0.0032996908311330405
0.7528123856 -0.1003156006 -0.001798296631718304 -0.0034491187062099366
0.7581338286 -0.1003156006 -0.0019575597018247964 -0.0036177444042783057
-0.3008363545 -0.09699654579 -0.00015273793443156805 0.0011255948988384155
-0.2955148816 -0.09699654579 -0.00012202552836509617 0.0011621184922921738
-0.2901934385 -0.09699654579 -7.91504417728216e-05 0.0011889468264595134
-0.2848719656 -0.09699654579 -2.4642956137791085e-05 0.0012140345422826536
-0.2795505226 -0.09699654579 3.234393820815736e-05 0.0012568536086350855
-0.2742290497 -0.09699654579 8.365909851023177e-05 0.001320195686268508
-0.2689076066 -0.09699654579 0.00011597461973691753 0.0014168181335370484
-0.2635861337 -0.09699654579 0.00010654478974615194 0.0014892310940551165
-0.2582646906 -0.09699654579 3.82007415484447e-05 0.0014657264096926844
-0.2529432178 -0.09699654579 -3.7096756282062934e-05 0.0014062809440627735
-0.2476217598 -0.09699654579 -0.00014661366849246343 0.0013238542881536398
-0.2423003018 -0.09699654579 -0.0002722411563899246 0.0012445033676221993
-0.2369788438 -0.09699654579 -0.00042668823326921063 0.001222195713478896
-0.2316573858 -0.09699654579 -0.0005924484222914158 0.0011762196416945712
-0.2263359278 -0.09699654579 -0.0007639143943096069 0.0010652479718435402
-0.2210144699 -0.09699654579 -0.0007021046880452674 0.0010016006333579605
-0.2156930119 -0.09699654579 -0.0005815356109085355 0.0009824477024862226
-0.2103715539 -0.09699654579 -0.00044249618230062947 0.0009980555823292528
-0.2050500959 -0.09699654579 -0.00048405171755662544 0.0009975687106454827
-0.1997286379 -0.09699654579 -0.0006141306088832864 0.0009720193992766902
-0.19440718 -0.09699654579 -0.0007433885387779403 0.0009406560141456362
-0.189085722 -0.09699654579 -0.0008166202652373123 0.0008674699114764294
-0.183764264 -0.09699654579 -0.0008739705897050073 0.0007840138705929855
-0.178442806 -0.09699654579 -0.0009547194463437039 0.0006915370984883916
-0.173121348 -0.09699654579 -0.0009676665798994155 0.0005968090416654032
-0.16779989 -0.09699654579 -0.0009480566253987939 0.000488997066455849
-0.1624784321 -0.09699654579 -0.0008989497394857356 0.0003736693277953737
-0.1571569741 -0.09699654579 -0.0008255437242404907 0.0002535312935421901
-0.1518355161 -0.09699654579 -0.0007366421966419593 0.00014584998404315675
-0.1465140581 -0.09699654579 -0.0006480194479772905 4.286278719703181e-05
-0.1411926001 -0.09699654579 -0.0005541152022571138 -4.482242607692091e-05
-0.1358711421 -0.09699654579 -0.00043837578466159055 -8.985427653341707e-05
-0.1305496842 -0.09699654579 -0.0003201525306159158 -0.00013050872465447113
-0.1252282262 -0.09699654579 -0.00018974378790089156 -0.00017254332118468724
-0.1199067682 -0.09699654579 -8.76966395860339e-05 -0.00018027452359468564
-0.1145853102 -0.09699654579 1.4939178053640297e-06 -0.00017876285089313244
-0.1092638522 -0.09699654579 9.38932575643106e-05 -0.00017762081756027487
-0.1039423943 -0.09699654579 0.00018717242180454926 -0.00017722522889259516
-0.09862093627 -0.09699654579 0.00029360456005213817 -0.0001867225725936252
-0.09329947084 -0.09699654579 0.00040284535925763556 -0.000195762501773446
-0.08797801286 -0.09699654579 0.0005139240998808233 -0.0002044215537062123
-0.08265655488 -0.09699654579 0.0006219515922827229 -0.00021279361276687513
-0.0773350969 -0.09699654579 0.0007067741504111759 -0.00020783681377197738
-0.07201363891 -0.09699654579 0.0007886291696296213 -0.0001996103135110342
-0.06669218093 -0.09699654579 0.000871633961567939 -0.00019124127719015677
-0.06137072667 -0.09699654579 0.000952411141602227 -0.00018200045143930587
-0.05604926869 -0.09699654579 0.0009873561959740109 -0.00015279610398555207
-0.05072781071 -0.09699654579 0.0010168250811095016 -0.0001216472502897935
-0.045406349 -0.09699654579 0.0010459882309086731 -9.049219630052518e-05
-0.04008489102 -0.09699654579 0.0010718949207086845 -5.8129082955131336e-05
-0.03476343304 -0.09699654579 0.0010930106883732735 -2.6297346057521217e-05
-0.02944197692 -0.09699654579 0.0011095801681447219 2.319718582287212e-06
-0.02412051894 -0.09699654579 0.0011267203149106313 3.04108145548649e-05
-0.01879905909 -0.09699654579 0.0011420989876719343 5.8997460446826315e-05
-0.01347760204 -0.09699654579 0.0011586811448120596 8.846061495278436e-05
-0.00815614406 -0.09699654579 0.0011554976779639978 0.00011162091679716744
-0.00283468538 -0.09699654579 0.0011360816430791962 0.00012978410184154952
0.002486772602 -0.09699654579 0.0011155595165089267 0.00014898746207947847
0.007808230817 -0.09699654579 0.0010935672303099492 0.0001684633580940209
0.0131296888 -0.09699654579 0.0010745606584264358 0.00018710889558972167
0.01845114678 -0.09699654579 0.0010517054191476274 0.00016943684894358535
0.02377260476 -0.09699654579 0.001026899947633448 0.00012460439954637412
0.02909406275 -0.09699654579 0.0009971603846130246 7.803436053582283e-05
0.03441552073 -0.09699654579 0.0009674984361035103 3.112658562294273e-05
0.03973697871 -0.09699654579 0.0009424864041774871 -1.3780858031128782e-05
0.04505843669 -0.09699654579 0.0009431826530186891 -6.070231017664981e-05
0.05037989467 -0.09699654579 0.0009906586037241557 -0.00011270688540313747
0.05570135266 -0.09699654579 0.0010376754337325016 -0.00016534738488978263
0.06102281436 -0.09699654579 0.0010844540643785156 -0.0002201236152964746
0.06634426862 -0.09699654579 0.001131430230551891 -0.00027144912321139594
0.0716657266 -0.09699654579 0.0011788431645035145 -0.0003227546871862964
0.07698718458 -0.09699654579 0.0012512686879761845 -0.00029584336691584927
0.08230864257 -0.09699654579 0.0013250372622494642 -0.0002642626437033834
0.08763010055 -0.09699654579 0.0013970785091742368 -0.00023349443237543228
0.09295155853 -0.09699654579 0.0014699737107045487 -0.00020293289906521232
0.09827301651 -0.09699654579 0.0015417269143151655 -0.00017220231120444596
0.1035944745 -0.09699654579 0.0015861644275403058 -0.00012814878456575998
0.1089159325 -0.09699654579 0.0015741927331075667 -5.9234370928137925e-05
0.1142373979 -0.09699654579 0.0015648792268608143 5.950079569404457e-06
0.1195588559 -0.09699654579 0.0015569140858366672 6.849659196401261e-05
0.1248803139 -0.09699654579 0.0015486185298940022 0.00013108982925270026
0.1302017719 -0.09699654579 0.0015396637069684308 0.00019576733759615054
0.1355232298 -0.09699654579 0.0014958664242096474 0.00021566701044942988
0.1408446878 -0.09699654579 0.0014366439738368903 0.00020517407003516427
0.1461661458 -0.09699654579 0.0013775561237952918 0.0001947418368675701
0.1514876038 -0.09699654579 0.0013142980890440226 0.00018469499600460724
0.1568090618 -0.09699654579 0.001250841988002458 0.00017462617854944987
0.1621305197 -0.09699654579 0.0011910631397577744 0.00016488275477496005
0.1674519777 -0.09699654579 0.0011813275353999935 0.00012530217195304608
0.1727734357 -0.09699654579 0.0011891682400948656 7.427063686029132e-05
0.1780948937 -0.09699654579 0.0011963132719102776 2.1228065088062456e-05
0.1834163517 -0.09699654579 0.0012021250369419795 -3.093982175800371e-05
0.1887378097 -0.09699654579 0.0012088664332701058 -7.931529561808388e-05
0.1940592676 -0.09699654579 0.0012162290827094765 -0.00012764576360355112
0.1993807256 -0.09699654579 0.0012536722566486402 -0.0001365679754344273
0.2047021836 -0.09699654579 0.0012981324787778585 -0.00013452737358568334
0.2100236416 -0.09699654579 0.0013412467183831248 -0.0001334084209383591
0.2153450996 -0.09699654579 0.001383365223704202 -0.00013180832278931353
0.2206665576 -0.09699654579 0.0014256849751265485 -0.0001302218833697011
0.2259880155 -0.09699654579 0.001467757763177159 -0.00012882275207626247
0.2313094735 -0.09699654579 0.0014816317502330892 -0.00011613511168663398
0.2366309315 -0.09699654579 0.0014835726205006748 -0.00010159789917758377
0.2419523895 -0.09699654579 0.0014861879983832464 -8.703932243113797e-05
0.2472738475 -0.09699654579 0.0014876414941120861 -7.252049822861028e-05
0.2525953054 -0.09699654579 0.0014926757589239683 -5.897452488781952e-05
0.2579167783 -0.09699654579 0.0014970224086235993 -4.654426537764979e-05
0.2632382214 -0.09699654579 0.0014941721557650976 -5.020405897569788e-05
0.2685596943 -0.09699654579 0.0014910322367458662 -5.792657930693242e-05
0.2738811374 -0.09699654579 0.0014875891419548096 -6.440148280427739e-05
0.2792026103 -0.09699654579 0.0014859276536512858 -7.11234924330732e-05
0.2845240533 -0.09699654579 0.001483104791410259 -7.704592397405015e-05
0.2898455262 -0.09699654579 0.0014800607644577122 -8.40291758257378e-05
0.2951669693 -0.09699654579 0.0014908138407933823 -8.138145377142432e-05
0.3004884422 -0.09699654579 0.001502517437843223 -7.744229232672841e-05
0.3058098853 -0.09699654579 0.001509192475299 -7.339106148378012e-05
0.3111313581 -0.09699654579 0.0015173536518022967 -6.947726963499643e-05
0.3164528012 -0.09699654579 0.0015240458421238098 -6.569878637802409e-05
0.3217742741 -0.09699654579 0.0015304808203127655 -6.224176685718115e-05
0.3270957172 -0.09699654579 0.0015321917767249676 -4.748203173054858e-05
0.3324171901 -0.09699654579 0.001532379316136913 -3.272906670087683e-05
0.3377386332 -0.09699654579 0.0015335496801025662 -1.8659791087517893e-05
0.343060106 -0.09699654579 0.0015335052718235902 -4.975643312438323e-06
0.3483815491 -0.09699654579 0.0015325531422896773 9.053395987225589e-06
0.353703022 -0.09699654579 0.001527684633049395 2.5758999957619115e-05
0.3590244651 -0.09699654579 0.0015113371804806328 4.6285323647482304e-05
0.364345938 -0.09699654579 0.001493137736940649 6.544640876754573e-05
0.369667381 -0.09699654579 0.0014757185647242452 8.464402315810741e-05
0.3749888539 -0.09699654579 0.001460794115572072 0.00010390994228466785
0.380310297 -0.09699654579 0.0014437700484675787 0.0001216634593830672
0.3856317699 -0.09699654579 0.0014058926698418274 0.00013886581550036497
0.390953213 -0.09699654579 0.001362257780852075 0.00015681943424189612
0.3962746859 -0.09699654579 0.0013191383359808606 0.00017655869308737167
0.4015961289 -0.09699654579 0.0012757598674745863 0.00019322379498978713
0.4069176018 -0.09699654579 0.00123350229571274 0.00020818754427848296
0.4122390449 -0.09699654579 0.001178103752144813 0.00021035287585970092
0.4175605178 -0.09699654579 0.0011049784943858135 0.0001954169402500298
0.4228819609 -0.09699654579 0.001038493384679148 0.0001790035295318779
0.4282034338 -0.09699654579 0.0009724135371203369 0.00016284684684835126
0.4335248768 -0.09699654579 0.0009056499764651323 0.00014661028444592133
0.4388463497 -0.09699654579 0.0008397029131472279 0.00011763696110986813
0.4441677928 -0.09699654579 0.000786906968047408 6.202298193969574e-05
0.4494892657 -0.09699654579 0.0007344169644960982 7.270761650567166e-06
0.4548107088 -0.09699654579 0.0006828168303125523 -4.73162286383253e-05
0.4601321816 -0.09699654579 0.0006344349098656932 -0.00010133504454755411
0.4654536247 -0.09699654579 0.0006002152624441413 -0.00015663496970902952
0.4707750976 -0.09699654579 0.0005872198309176439 -0.00021970693075644684
0.4760965407 -0.09699654579 0.000573996292137475 -0.000284964207472628
0.4814180136 -0.09699654579 0.0005609843221288534 -0.0003480621052032862
0.4867394567 -0.09699654579 0.0005459047473393895 -0.00040901268708961675
0.4920609295 -0.09699654579 0.0005472906748835012 -0.0004565940308175913
0.4973823726 -0.09699654579 0.0005505325311629855 -0.0005009193191351723
0.5027038455 -0.09699654579 0.0005519520954496511 -0.0005445472264280572
0.5080252886 -0.09699654579 0.0005566290208813576 -0.000588693063763192
0.5133467317 -0.09699654579 0.000556924551510112 -0.0006247477538688563
0.5186682343 -0.09699654579 0.000554429784743085 -0.0006516609879889262
0.5239896774 -0.09699654579 0.0005502831141697339 -0.0006804024037789603
0.5293111205 -0.09699654579 0.0005473605557832007 -0.0007083047419056947
0.5346325636 -0.09699654579 0.0005363213421897995 -0.0007328366127961896
0.5399540663 -0.09699654579 0.0005203381743749926 -0.0007559815309131458
0.5452755094 -0.09699654579 0.0005010321651382993 -0.000779858035481589
0.5505969524 -0.09699654579 0.0004844709679869755 -0.0008028540788688745
0.5559183955 -0.09699654579 0.0004567749089926375 -0.0008282786297943232
0.5612398982 -0.09699654579 0.0004258907157657518 -0.0008562849348475799
0.5665613413 -0.09699654579 0.0003952829317266312 -0.0008842305442640914
0.5718827844 -0.09699654579 0.00036181709752166626 -0.0009142526755909468
0.5772042274 -0.09699654579 0.0003227590099456495 -0.0009512530383715003
0.5825257301 -0.09699654579 0.0002872111246478812 -0.000988224349824427
0.5878471732 -0.09699654579 0.00024544841044554517 -0.001027916740419054
0.5931686163 -0.09699654579 0.0002045519383395347 -0.0010736133744801118
0.5984900594 -0.09699654579 0.00016171418946009874 -0.0011194132185813955
0.6038115621 -0.09699654579 0.0001196522946257991 -0.0011693554835121285
0.6091330051 -0.09699654579 7.732657926610157e-05 -0.001221243728855929
0.6144544482 -0.09699654579 3.6338010367253676e-05 -0.0012748773664907548
0.6197758913 -0.09699654579 -6.2712066573146246e-06 -0.0013330024967708987
0.625097394 -0.09699654579 -4.873011866022095e-05 -0.0013913521714471846
0.6304188371 -0.09699654579 -9.177568351562625e-05 -0.0014526849985417882
0.6357402802 -0.09699654579 -0.0001347211558881423 -0.0015138861031572914
0.6410617828 -0.09699654579 -0.00017694652572182345 -0.0015763211318877007
0.6463832259 -0.09699654579 -0.00022073413664168982 -0.0016413005986464287
0.651704669 -0.09699654579 -0.0002648650367153363 -0.0017064775494547424
0.6570261121 -0.09699654579 -0.0003113480533821633 -0.0017739468541586052
0.6623476148 -0.09699654579 -0.00035678567886470906 -0.0018414111487919471
0.6676690578 -0.09699654579 -0.00040270695947384794 -0.0019094159211280087
0.6729905009 -0.09699654579 -0.0004546326845962065 -0.0019784185944330284
0.678311944 -0.09699654579 -0.000507214590406907 -0.002047252438938107
0.6836334467 -0.09699654579 -0.0005618113361470709 -0.0021177602609683314
0.6889548898 -0.09699654579 -0.0006204932750196974 -0.0021904197421015762
0.6942763329 -0.09699654579 -0.0006815391568458664 -0.0022610490972053234
0.6995977759 -0.09699654579 -0.0007501010631910398 -0.002332955187264028
0.7049192786 -0.09699654579 -0.0008248959925292586 -0.0024083904827607973
0.7102407217 -0.09699654579 -0.0009097893551638572 -0.002486273387756286
0.7155621648 -0.09699654579 -0.0009984082811621252 -0.0025695033942942504
0.7208836079 -0.09699654579 -0.0010986157872293458 -0.002655286139783776
0.7262051105 -0.09699654579 -0.0012092102290878466 -0.0027455246830749903
0.7315265536 -0.09699654579 -0.0013286841921646062 -0.0028471635709863465
0.7368479967 -0.09699654579 -0.0014545370382518937 -0.0029517471931155134
0.7421694398 -0.09699654579 -0.0015927948084961208 -0.003074198880641027
0.7474909425 -0.09699654579 -0.0017424298219992382 -0.0032034137241022716
0.7528123856 -0.09699654579 -0.001900285996984332 -0.003350912427911507
0.7581338286 -0.09699654579 -0.002069504804393531 -0.003512775577342266
-0.3008363545 -0.09367749095 -0.000139314244350302 0.001075199096462805
-0.2955148816 -0.09367749095 -9.855961869794822e-05 0.0011115953318297364
-0.2901934385 -0.09367749095 -7.160051178337166e-05 0.0011562432127659795
-0.2848719656 -0.09367749095 -1.7581349844949793e-05 0.0011940299129340622
-0.2795505226 -0.09367749095 3.959920819494864e-05 0.001239209575141007
-0.2742290497 -0.09367749095 8.553660502131524e-05 0.0013146566244172544
-0.2689076066 -0.09367749095 0.0001189059909959995 0.0014077598756013637
-0.2635861337 -0.09367749095 9.789920154707412e-05 0.0015530884577063743
-0.2582646906 -0.09367749095 3.032562787378188e-05 0.0015572747233651586
-0.2529432178 -0.09367749095 -6.426804780538255e-05 0.0015192914385336014