VARIABLES = X,Y,phix,phiy
ZONE I=200,J=200,F=POINT 
-0.3008363545 -0.1003156006 -8.465589517742423e-05 -2.2236224065886767e-05
-0.2955148816 -0.1003156006 -0.00012060664080645773 -5.4380306022780726e-06
-0.2901934385 -0.1003156006 -0.00014369427132913284 5.413416362223597e-06
-0.2848719656 -0.1003156006 -0.00017251276187454882 1.4050515087450344e-05
-0.2795505226 -0.1003156006 -0.00021624409200416106 8.623432292545963e-06
-0.2742290497 -0.1003156006 -0.000276437893672149 -9.121932374688413e-06
-0.2689076066 -0.1003156006 -0.00033545639911685435 -4.506874686770005e-05
-0.2635861337 -0.1003156006 -0.0003551451409530425 -6.954435285702409e-05
-0.2582646906 -0.1003156006 -0.0003623717419703734 -8.95650790851616e-05
-0.2529432178 -0.1003156006 -0.0003819529865678634 -0.00010897394555452112
-0.2476217598 -0.1003156006 -0.0004007648415812298 -0.00011744999306019962
-0.2423003018 -0.1003156006 -0.0003955059572781086 -0.00011925721105972399
-0.2369788438 -0.1003156006 -0.00038044510504650354 -0.0001322618879891423
-0.2316573858 -0.1003156006 -0.00036513229054316033 -0.00013944252510490954
-0.2263359278 -0.1003156006 -0.0003643825003950888 -0.00016370568395376363
-0.2210144699 -0.1003156006 -0.0003543799798800206 -0.00017498204354577372
-0.2156930119 -0.1003156006 -0.00034035936731385515 -0.00017855547094605567
-0.2103715539 -0.1003156006 -0.00033481246737253903 -0.00017623159583478326
-0.2050500959 -0.1003156006 -0.0002828567302324677 -0.00018688843246922066
-0.1997286379 -0.1003156006 -0.0002167578148768901 -0.00021835164262863383
-0.19440718 -0.1003156006 -0.00013583506215480876 -0.0002320115519638423
-0.189085722 -0.1003156006 -0.00011172841468646408 -0.00022124689207309844
-0.183764264 -0.1003156006 -9.07450178909256e-05 -0.0001895423351720969
-0.178442806 -0.1003156006 -7.030946680414114e-05 -0.00016669562293530307
-0.173121348 -0.1003156006 -6.296132909925908e-05 -0.00014563721741470527
-0.16779989 -0.1003156006 -5.8433039198391e-05 -0.00012637377103102293
-0.1624784321 -0.1003156006 -4.968318134679564e-05 -9.29561227102264e-05
-0.1571569741 -0.1003156006 -5.153621653419772e-05 -8.08339165392794e-05
-0.1518355161 -0.1003156006 -6.246964855860777e-05 -7.426583809443873e-05
-0.1465140581 -0.1003156006 -7.430810301897891e-05 -6.56452814289423e-05
-0.1411926001 -0.1003156006 -8.741909376828542e-05 -5.837599773057775e-05
-0.1358711421 -0.1003156006 -0.00010392104937921953 -5.330963010708909e-05
-0.1305496842 -0.1003156006 -0.00012054669988198831 -4.812414371502448e-05
-0.1252282262 -0.1003156006 -0.00013736392380165311 -4.370425624054187e-05
-0.1199067682 -0.1003156006 -0.00014377272448153587 -4.362475159448146e-05
-0.1145853102 -0.1003156006 -0.00014830493370279418 -4.4050653657364205e-05
-0.1092638522 -0.1003156006 -0.00015232907597213056 -4.532309559239539e-05
-0.1039423943 -0.1003156006 -0.00015706118857204354 -4.6962789777407815e-05
-0.09862093627 -0.1003156006 -0.00015902534409841063 -4.572925719893083e-05
-0.09329947084 -0.1003156006 -0.0001626122549052096 -4.375925821686491e-05
-0.08797801286 -0.1003156006 -0.00016698810744738798 -4.192129019792061e-05
-0.08265655488 -0.1003156006 -0.00017249257523472604 -3.966229031091827e-05
-0.0773350969 -0.1003156006 -0.00018064326460506903 -3.133322842110226e-05
-0.07201363891 -0.1003156006 -0.00018816872065016238 -2.31798748346738e-05
-0.06669218093 -0.1003156006 -0.0001958731619514844 -1.5027578558418905e-05
-0.06137072667 -0.1003156006 -0.0002026329299002763 -6.7410048838800015e-06
-0.05604926869 -0.1003156006 -0.0002118650783317875 1.4210087479153825e-06
-0.05072781071 -0.1003156006 -0.00022182059558479973 9.86032417408761e-06
-0.045406349 -0.1003156006 -0.0002327175698681942 1.790607188589737e-05
-0.04008489102 -0.1003156006 -0.00024275249007639662 2.663916647790802e-05
-0.03476343304 -0.1003156006 -0.000255101491941549 3.416001903864752e-05
-0.02944197692 -0.1003156006 -0.0002715752973252342 3.965146955089448e-05
-0.02412051894 -0.1003156006 -0.0002866585574968514 4.501385714176998e-05
-0.01879905909 -0.1003156006 -0.000303937153716775 5.029855036239622e-05
-0.01347760204 -0.1003156006 -0.00032027605838103886 5.5665729755150836e-05
-0.00815614406 -0.1003156006 -0.0003280123410388582 5.661674483219498e-05
-0.00283468538 -0.1003156006 -0.0003304009558969257 5.437873064823134e-05
0.002486772602 -0.1003156006 -0.00033080279205103754 5.1015074640371004e-05
0.007808230817 -0.1003156006 -0.0003314460261995467 4.768867166323676e-05
0.0131296888 -0.1003156006 -0.00033346559891975485 4.522677234506722e-05
0.01845114678 -0.1003156006 -0.00033204436031780666 4.566135394577331e-05
0.02377260476 -0.1003156006 -0.0003274378754072103 4.821747006164777e-05
0.02909406275 -0.1003156006 -0.000320659294131235 5.0745056555702866e-05
0.03441552073 -0.1003156006 -0.0003148571811929714 5.329031883345206e-05
0.03973697871 -0.1003156006 -0.0003097640766614198 5.58434531061837e-05
0.04505843669 -0.1003156006 -0.00030625378709185863 6.079947888628912e-05
0.05037989467 -0.1003156006 -0.000307015000268703 7.02572611911854e-05
0.05570135266 -0.1003156006 -0.0003065704653717442 8.009251040013167e-05
0.06102281436 -0.1003156006 -0.00030599654965584927 9.002855968517727e-05
0.06634426862 -0.1003156006 -0.00030592746648401716 9.966996448082314e-05
0.0716657266 -0.1003156006 -0.0003065984600072081 0.00010911832683995937
0.07698718458 -0.1003156006 -0.00031757220720596047 0.00010707511558896867
0.08230864257 -0.1003156006 -0.0003304410304568327 0.00010434336482408917
0.08763010055 -0.1003156006 -0.00034334633063579204 0.00010130547993587191
0.09295155853 -0.1003156006 -0.00035470228205507594 9.848219636366995e-05
0.09827301651 -0.1003156006 -0.0003676022645892228 9.594881465258829e-05
0.1035944745 -0.1003156006 -0.000376300323781197 9.216911488183762e-05
0.1089159325 -0.1003156006 -0.0003792720202994062 8.649896654049927e-05
0.1142373979 -0.1003156006 -0.0003827105417127851 8.07499289949728e-05
0.1195588559 -0.1003156006 -0.000386746231264024 7.514149967897817e-05
0.1248803139 -0.1003156006 -0.00039123122691547856 6.9339098874309e-05
0.1302017719 -0.1003156006 -0.00039451137136451044 6.369524365988379e-05
0.1355232298 -0.1003156006 -0.00038997548604795533 5.933985019828547e-05
0.1408446878 -0.1003156006 -0.00038170691911594773 5.595256830752376e-05
0.1461661458 -0.1003156006 -0.0003736634958498029 5.331068810559286e-05
0.1514876038 -0.1003156006 -0.0003666895828432693 5.069432464475883e-05
0.1568090618 -0.1003156006 -0.0003587581483980274 4.800680135328849e-05
0.1621305197 -0.1003156006 -0.0003514524746290583 4.5359876465240124e-05
0.1674519777 -0.1003156006 -0.0003456562344538392 3.9019777446122095e-05
0.1727734357 -0.1003156006 -0.0003403098577228728 3.1255318217206415e-05
0.1780948937 -0.1003156006 -0.000335079136752067 2.337880564923407e-05
0.1834163517 -0.1003156006 -0.00033037692857688174 1.5534603644679094e-05
0.1887378097 -0.1003156006 -0.00032443916310514787 7.809442508325009e-06
0.1940592676 -0.1003156006 -0.0003194739561079025 3.6711192799389974e-07
0.1993807256 -0.1003156006 -0.0002992409100497556 -7.531875518534309e-06
0.2047021836 -0.1003156006 -0.0002740539488007872 -1.542268187504738e-05
0.2100236416 -0.1003156006 -0.00024972502825685954 -2.3487797864966472e-05
0.2153450996 -0.1003156006 -0.0002273094768844508 -2.988245377384132e-05
0.2206665576 -0.1003156006 -0.00020377998759863567 -3.677290067595395e-05
0.2259880155 -0.1003156006 -0.00017932775941932694 -4.364170942966864e-05
0.2313094735 -0.1003156006 -0.00014682654899921018 -2.8318929140700406e-05
0.2366309315 -0.1003156006 -0.00011144031754926792 -7.164938091466951e-06
0.2419523895 -0.1003156006 -8.045398778676018e-05 1.3854387230955744e-05
0.2472738475 -0.1003156006 -4.787544010998688e-05 3.4996762366633366e-05
0.2525953054 -0.1003156006 -1.5422036764492694e-05 5.609141503406605e-05
0.2579167783 -0.1003156006 1.5103307117197102e-05 7.64236509527512e-05
0.2632382214 -0.1003156006 2.4637645154503308e-05 0.00010943941476644246
0.2685596943 -0.1003156006 2.8291658187528467e-05 0.0001460143161381239
0.2738811374 -0.1003156006 3.108039709492329e-05 0.0001837953396139045
0.2792026103 -0.1003156006 3.565025340969333e-05 0.00022071478117931357
0.2845240533 -0.1003156006 4.046776021494125e-05 0.00025500260902477326
0.2898455262 -0.1003156006 4.449828893695718e-05 0.0002891943009778689
0.2951669693 -0.1003156006 2.540686298388935e-05 0.0003111441517808011
0.3004884422 -0.1003156006 1.2020343490994479e-06 0.000330992092991466
0.3058098853 -0.1003156006 -1.9710798979531224e-05 0.00035012279751628827
0.3111313581 -0.1003156006 -4.219968118781442e-05 0.0003693310836562431
0.3164528012 -0.1003156006 -6.289933140703123e-05 0.0003884019955411747
0.3217742741 -0.1003156006 -8.480623522396655e-05 0.0004071461598851276
0.3270957172 -0.1003156006 -0.00010321119096710229 0.00040075966682567334
0.3324171901 -0.1003156006 -0.00012334401124282685 0.00039441520319247474
0.3377386332 -0.1003156006 -0.0001429593480743416 0.00038802344942606346
0.343060106 -0.1003156006 -0.00016215195687608634 0.00038163881724905224
0.3483815491 -0.1003156006 -0.00017835533908118367 0.0003768947279981472
0.353703022 -0.1003156006 -0.0001884437068654808 0.00036775978311372176
0.3590244651 -0.1003156006 -0.00018120625998284707 0.0003492791006134544
0.364345938 -0.1003156006 -0.00017409228345734105 0.00033065915061151915
0.369667381 -0.1003156006 -0.00016734005191794613 0.00031527373341812823
0.3749888539 -0.1003156006 -0.0001607596176074505 0.00029889828040773807
0.380310297 -0.1003156006 -0.00015095973467337548 0.000282378882204697
0.3856317699 -0.1003156006 -0.00012679356833726822 0.0002760159248717448
0.390953213 -0.1003156006 -9.872876144157423e-05 0.00027422047148774
0.3962746859 -0.1003156006 -7.135258880209224e-05 0.0002729749897383734
0.4015961289 -0.1003156006 -4.2832898995135176e-05 0.00027177437899892606
0.4069176018 -0.1003156006 -1.5883357898463304e-05 0.00027046854602594456
0.4122390449 -0.1003156006 9.989302873517345e-06 0.0002782516241670357
0.4175605178 -0.1003156006 3.6616810401175186e-05 0.00029777230208732685
0.4228819609 -0.1003156006 6.441956045597942e-05 0.00031834933873015975
0.4282034338 -0.1003156006 9.171486017344641e-05 0.00033855249658878436
0.4335248768 -0.1003156006 0.00011517422100804424 0.0003575680656694468
0.4388463497 -0.1003156006 0.00013792736342862238 0.0003803834505326621
0.4441677928 -0.1003156006 0.0001493746197142877 0.0004114310858605212
0.4494892657 -0.1003156006 0.00016285063694030586 0.00044187368379078405
0.4548107088 -0.1003156006 0.00017306922318233994 0.0004703700408218909
0.4601321816 -0.1003156006 0.00018413617940646508 0.0005000635584382074
0.4654536247 -0.1003156006 0.00018670760083391448 0.0005298879269798153
0.4707750976 -0.1003156006 0.00017871126106027978 0.0005580852332548812
0.4760965407 -0.1003156006 0.00017257245536116296 0.0005841802221147039
0.4814180136 -0.1003156006 0.00016497436685513955 0.000610431428872607
0.4867394567 -0.1003156006 0.0001580308606494493 0.0006365551520961892
0.4920609295 -0.1003156006 0.00014250779617958257 0.0006523346618979716
0.4973823726 -0.1003156006 0.000126006939190193 0.0006642002998200405
0.5027038455 -0.1003156006 0.00010816573296108845 0.0006759903269310592
0.5080252886 -0.1003156006 9.030386600481989e-05 0.0006877508694247668
0.5133467317 -0.1003156006 7.402952355736359e-05 0.0006920808126194597
0.5186682343 -0.1003156006 5.85167062646295e-05 0.0006860654695680325
0.5239896774 -0.1003156006 4.3460252778382225e-05 0.000680062678603348
0.5293111205 -0.1003156006 2.9551889030169366e-05 0.0006745518485809204
0.5346325636 -0.1003156006 1.9268252679674455e-05 0.0006665618783306474
0.5399540663 -0.1003156006 1.7571902591193428e-05 0.0006523626366849589
0.5452755094 -0.1003156006 1.3172339417249303e-05 0.000637526797054877
0.5505969524 -0.1003156006 1.1624159626823435e-05 0.000623973244759386
0.5559183955 -0.1003156006 1.779581754100748e-05 0.0006105408659860659
0.5612398982 -0.1003156006 2.6959237856958383e-05 0.0005939844003172081
0.5665613413 -0.1003156006 3.5537056254523516e-05 0.0005779834232480409
0.5718827844 -0.1003156006 4.69471439013134e-05 0.0005647237229032907
0.5772042274 -0.1003156006 6.222047136328798e-05 0.0005510161773606735
0.5825257301 -0.1003156006 7.752037954715614e-05 0.0005372915282609381
0.5878471732 -0.1003156006 9.511771501605586e-05 0.0005256646421426611
0.5931686163 -0.1003156006 0.00011280141174923656 0.0005153449504830058
0.5984900594 -0.1003156006 0.00013338438098151354 0.0005044789842174164
0.6038115621 -0.1003156006 0.00015291831282791048 0.0004955790825974824
0.6091330051 -0.1003156006 0.000171644211007504 0.0004869376652814403
0.6144544482 -0.1003156006 0.00018970891159308232 0.00047826305912599955
0.6197758913 -0.1003156006 0.00020539708809587867 0.0004705523165917324
0.625097394 -0.1003156006 0.00022244899195672936 0.00046153592416417586
0.6304188371 -0.1003156006 0.00023922469203289945 0.0004502980440933671
0.6357402802 -0.1003156006 0.0002568421912498027 0.0004378210875952599
0.6410617828 -0.1003156006 0.000271540635665965 0.00042138469285524314
0.6463832259 -0.1003156006 0.0002863148857853997 0.00040238169097911864
0.651704669 -0.1003156006 0.000302065935030319 0.00037996042376634
0.6570261121 -0.1003156006 0.00031968530066413297 0.00035237033431198306
0.6623476148 -0.1003156006 0.00033825543865725964 0.000318896629308872
0.6676690578 -0.1003156006 0.00035921895689549466 0.0002818134776151748
0.6729905009 -0.1003156006 0.0003843888708445115 0.00023480125053273234
0.678311944 -0.1003156006 0.0004151366247284533 0.00018398258210102907
0.6836334467 -0.1003156006 0.0004485330562385913 0.00012577968434834762
0.6889548898 -0.1003156006 0.0004893824169338654 6.0866246755368e-05
0.6942763329 -0.1003156006 0.0005400463500658868 -1.3364620474423637e-05
0.6995977759 -0.1003156006 0.0006035265853494001 -9.399496627878632e-05
0.7049192786 -0.1003156006 0.0006732147385892236 -0.00017630297935442333
0.7102407217 -0.1003156006 0.0007582118733781064 -0.0002703018019040842
0.7155621648 -0.1003156006 0.0008583917300478939 -0.0003674054308255796
0.7208836079 -0.1003156006 0.0009763172892440692 -0.0004681749490029992
0.7262051105 -0.1003156006 0.001110272984344325 -0.0005740443623595588
0.7315265536 -0.1003156006 0.0012699439712344411 -0.0006796052952526988
0.7368479967 -0.1003156006 0.0014541595723663338 -0.0007882937430269724
0.7421694398 -0.1003156006 0.0016637442713354448 -0.0008946597873687747
0.7474909425 -0.1003156006 0.0018858983603656345 -0.0009858907740711315
0.7528123856 -0.1003156006 0.0021445814711769924 -0.0010758025719292419
0.7581338286 -0.1003156006 0.0024315379124651153 -0.0011525188501151748
-0.3008363545 -0.09699654579 -6.375045882583525e-05 -8.944172657804858e-06
-0.2955148816 -0.09699654579 -0.00010298968766646373 1.3870891459897022e-05
-0.2901934385 -0.09699654579 -0.00014752631522223884 3.7673321346578826e-05
-0.2848719656 -0.09699654579 -0.00018242072764792754 4.1298638602322264e-05
-0.2795505226 -0.09699654579 -0.00022681538587090836 3.8221343847321633e-05
-0.2742290497 -0.09699654579 -0.00027833227805919693 1.741461165541826e-05
-0.2689076066 -0.09699654579 -0.0003405833849897731 -2.8062398889197406e-05
-0.2635861337 -0.09699654579 -0.00037799911941544044 -8.231328468715259e-05
-0.2582646906 -0.09699654579 -0.0003640996112178044 -0.00011371847831824356
-0.2529432178 -0.09699654579 -0.00037754102915100193 -0.00012622619341003376
-0.2476217598 -0.09699654579 -0.0003944681798119237 -0.00012271704884127846
-0.2423003018 -0.09699654579 -0.0004121622670000698 -0.00011235510244525652
-0.2369788438 -0.09699654579 -0.0003880499796557453 -0.00010623851316159686
-0.2316573858 -0.09699654579 -0.00038052848739521526 -0.00012434576037785816
-0.2263359278 -0.09699654579 -0.00036326864359885355 -0.0001469057397854965
-0.2210144699 -0.09699654579 -0.0003491385212988587 -0.00015662787004132046
-0.2156930119 -0.09699654579 -0.0003436730016933951 -0.0001601468989301862
-0.2103715539 -0.09699654579 -0.00033691181279864383 -0.0002047154163085765
-0.2050500959 -0.09699654579 -0.0002830821212647034 -0.00023900367567159683
-0.1997286379 -0.09699654579 -0.00020208882537653 -0.0002519537125146893
-0.19440718 -0.09699654579 -0.00011496713173291348 -0.00026886155983902986
-0.189085722 -0.09699654579 -7.757328208629547e-05 -0.0002579007250746575
-0.183764264 -0.09699654579 -5.667247059033338e-05 -0.00024210360342857043
-0.178442806 -0.09699654579 -4.247233554461907e-05 -0.00022615795861514099
-0.173121348 -0.09699654579 -3.238525232599817e-05 -0.00020229158468198865
-0.16779989 -0.09699654579 -2.472416671622292e-05 -0.0001609305105547699
-0.1624784321 -0.09699654579 -2.0447322452537706e-05 -0.000107819705567612
-0.1571569741 -0.09699654579 -2.5192741719134295e-05 -8.999275206206042e-05
-0.1518355161 -0.09699654579 -4.504330136567737e-05 -7.716536014058921e-05
-0.1465140581 -0.09699654579 -6.920640952329921e-05 -6.160098861076754e-05
-0.1411926001 -0.09699654579 -9.267613158540377e-05 -4.899437917929124e-05
-0.1358711421 -0.09699654579 -0.00011008199139184583 -4.492807188055543e-05
-0.1305496842 -0.09699654579 -0.00012827365243893178 -4.1691569928007285e-05
-0.1252282262 -0.09699654579 -0.00015080865570663674 -3.7303354923568344e-05
-0.1199067682 -0.09699654579 -0.0001641597592447332 -3.852902622389221e-05
-0.1145853102 -0.09699654579 -0.00017455611627279678 -3.978265472323312e-05
-0.1092638522 -0.09699654579 -0.00018546205467136968 -4.130903848198287e-05
-0.1039423943 -0.09699654579 -0.00019602231208024475 -4.4205994875149196e-05
-0.09862093627 -0.09699654579 -0.0002044747148013619 -4.1560343201138876e-05
-0.09329947084 -0.09699654579 -0.00021384265643171866 -3.8749357962759374e-05
-0.08797801286 -0.09699654579 -0.00022221997575694663 -3.561239669922249e-05
-0.08265655488 -0.09699654579 -0.00023010804419060617 -3.287047272845886e-05
-0.0773350969 -0.09699654579 -0.00023722021118649715 -2.452948624610526e-05
-0.07201363891 -0.09699654579 -0.00024264573171571834 -1.636739978446644e-05
-0.06669218093 -0.09699654579 -0.0002487280398803477 -8.219085332153182e-06
-0.06137072667 -0.09699654579 -0.0002521014867079504 -1.3365037480975158e-07
-0.05604926869 -0.09699654579 -0.00025950075201633323 8.700082647399447e-06
-0.05072781071 -0.09699654579 -0.0002692926134729146 1.7721896457290774e-05
-0.045406349 -0.09699654579 -0.0002788117805708753 2.6723382623200083e-05
-0.04008489102 -0.09699654579 -0.0002891819462650647 3.6208959749747676e-05
-0.03476343304 -0.09699654579 -0.0003000508900590317 4.4262573684948156e-05
-0.02944197692 -0.09699654579 -0.0003168882500430328 4.8966184515041604e-05
-0.02412051894 -0.09699654579 -0.0003330040467505365 5.3769511904122945e-05
-0.01879905909 -0.09699654579 -0.00034877734622881085 5.849802464458323e-05
-0.01347760204 -0.09699654579 -0.0003652084298151539 6.311986526982687e-05
-0.00815614406 -0.09699654579 -0.000371364377123887 6.2553985156936e-05
-0.00283468538 -0.09699654579 -0.0003700343237355378 5.827550569698864e-05
0.002486772602 -0.09699654579 -0.0003676645393720182 5.358041940485294e-05
0.007808230817 -0.09699654579 -0.0003655191225161339 4.892734593427238e-05
0.0131296888 -0.09699654579 -0.0003635574815405658 4.4434581099795305e-05
0.01845114678 -0.09699654579 -0.0003580797459075138 4.4039155037283755e-05
0.02377260476 -0.09699654579 -0.0003495363372631947 4.6573364392140386e-05
0.02909406275 -0.09699654579 -0.0003413367095742215 4.896548107859791e-05
0.03441552073 -0.09699654579 -0.0003321241249725448 5.1392127817504416e-05
0.03973697871 -0.09699654579 -0.00032409147546181313 5.3842856614476235e-05
0.04505843669 -0.09699654579 -0.00031737763375362893 5.939020663937726e-05
0.05037989467 -0.09699654579 -0.0003164661899787195 7.045513084194766e-05
0.05570135266 -0.09699654579 -0.0003152255351865818 8.164947829707412e-05
0.06102281436 -0.09699654579 -0.00031286102798390865 9.347829753140057e-05
0.06634426862 -0.09699654579 -0.0003119569842574904 0.00010441568594545191
0.0716657266 -0.09699654579 -0.0003113749434889085 0.0001153268978776907
0.07698718458 -0.09699654579 -0.00032431721426035237 0.00011241137832002321
0.08230864257 -0.09699654579 -0.00033688885608298215 0.00010894153729725854
0.08763010055 -0.09699654579 -0.00035014793446406947 0.00010549805207595677
0.09295155853 -0.09699654579 -0.00036397284072495515 0.00010206431686349964
0.09827301651 -0.09699654579 -0.00037724683138976094 9.867912301125606e-05
0.1035944745 -0.09699654579 -0.00038645992661923265 9.398603291711134e-05
0.1089159325 -0.09699654579 -0.00039062342349202556 8.751198269627899e-05
0.1142373979 -0.09699654579 -0.0003944918932756289 8.113597993144187e-05
0.1195588559 -0.09699654579 -0.0003998230081803517 7.518941411022386e-05
0.1248803139 -0.09699654579 -0.0004052622152526758 6.923147478042242e-05
0.1302017719 -0.09699654579 -0.00040991217409664776 6.279410644517053e-05
0.1355232298 -0.09699654579 -0.00040607676249433667 5.759120051488651e-05
0.1408446878 -0.09699654579 -0.0003988325012239238 5.326484495239235e-05
0.1461661458 -0.09699654579 -0.0003914011454505577 4.921788050155804e-05
0.1514876038 -0.09699654579 -0.00038190314932457376 4.519555246853667e-05
0.1568090618 -0.09699654579 -0.00037086747408630205 4.114761506755618e-05
0.1621305197 -0.09699654579 -0.0003618693321975091 3.743060437767104e-05
0.1674519777 -0.09699654579 -0.0003583350438610259 3.0898748340236385e-05
0.1727734357 -0.09699654579 -0.0003543752089624337 2.2761887173827736e-05
0.1780948937 -0.09699654579 -0.00035327819692458027 1.4218559393519399e-05
0.1834163517 -0.09699654579 -0.00035023708675217027 5.828573775019274e-06
0.1887378097 -0.09699654579 -0.00034790653904478324 -1.7433490227370005e-06
0.1940592676 -0.09699654579 -0.00034524286624180707 -9.345043820502939e-06
0.1993807256 -0.09699654579 -0.00032403978209198187 -1.802708196870778e-05
0.2047021836 -0.09699654579 -0.000299293864939328 -2.716052309455367e-05
0.2100236416 -0.09699654579 -0.00027489186287931 -3.5498516108665955e-05
0.2153450996 -0.09699654579 -0.0002502873225924369 -4.372933359027379e-05
0.2206665576 -0.09699654579 -0.0002263447250329365 -5.194919054318008e-05
0.2259880155 -0.09699654579 -0.00020247194449444288 -6.0190937607974155e-05
0.2313094735 -0.09699654579 -0.0001670935243317792 -4.3936808850811064e-05
0.2366309315 -0.09699654579 -0.00012945040654234742 -2.1783920055681935e-05
0.2419523895 -0.09699654579 -9.165853747274096e-05 5.385232311175005e-07
0.2472738475 -0.09699654579 -5.38375441801611e-05 2.269160332453037e-05
0.2525953054 -0.09699654579 -1.814668588652035e-05 4.4385460517188026e-05
0.2579167783 -0.09699654579 1.630287653910988e-05 6.577383378865208e-05
0.2632382214 -0.09699654579 2.5921349573174266e-05 0.00010337541585902796
0.2685596943 -0.09699654579 2.9686114711221157e-05 0.00014405116943817851
0.2738811374 -0.09699654579 3.373264565577156e-05 0.00018376394247680454
0.2792026103 -0.09699654579 3.724735310650468e-05 0.00022164070370287388
0.2845240533 -0.09699654579 3.9819779448300716e-05 0.0002600126307186391
0.2898455262 -0.09699654579 4.3959190046218383e-05 0.0002989276129214094
0.2951669693 -0.09699654579 2.043898754323863e-05 0.00032189583415229573
0.3004884422 -0.09699654579 -3.793094779288371e-06 0.0003422717293248541
0.3058098853 -0.09699654579 -2.9038195915693437e-05 0.0003624794845121235
0.3111313581 -0.09699654579 -5.1865539928221455e-05 0.00038264448624896537
0.3164528012 -0.09699654579 -7.581476803881635e-05 0.0004026693370355681
0.3217742741 -0.09699654579 -9.828043031051484e-05 0.0004204600210582039
0.3270957172 -0.09699654579 -0.00011755662125144455 0.00041246559168168926
0.3324171901 -0.09699654579 -0.0001362058764930023 0.00040426169814446314
0.3377386332 -0.09699654579 -0.0001571657461053085 0.00039686454901109367
0.343060106 -0.09699654579 -0.00017457010383301982 0.0003898797132462335
0.3483815491 -0.09699654579 -0.00019273424280549228 0.00038283373662970435
0.353703022 -0.09699654579 -0.00020339358703152152 0.00037007911186117917
0.3590244651 -0.09699654579 -0.0001937163365089125 0.0003478579139722669
0.364345938 -0.09699654579 -0.0001861875422366562 0.0003278573020251801
0.369667381 -0.09699654579 -0.00017952380023179352 0.0003077347743367302
0.3749888539 -0.09699654579 -0.00017201581404937096 0.0002876105083531302
0.380310297 -0.09699654579 -0.00016358880118708168 0.00026911266462693276
0.3856317699 -0.09699654579 -0.00013849533807300092 0.000263422073127314
0.390953213 -0.09699654579 -0.0001080348800336869 0.00026018470137115386
0.3962746859 -0.09699654579 -7.584123543390494e-05 0.0002571244244204478
0.4015961289 -0.09699654579 -4.667890767716774e-05 0.00025427328038033414
0.4069176018 -0.09699654579 -1.6977625757666255e-05 0.0002523955388219701
0.4122390449 -0.09699654579 1.2731115233809132e-05 0.0002607939396838931
0.4175605178 -0.09699654579 4.265329877285212e-05 0.0002822157760611244
0.4228819609 -0.09699654579 7.147666829512054e-05 0.00030237366134063936
0.4282034338 -0.09699654579 9.978648722740992e-05 0.00032293845662044934
0.4335248768 -0.09699654579 0.00012714200455394336 0.000343227107405955
0.4388463497 -0.09699654579 0.00015223294068756165 0.00036865895822446766
0.4441677928 -0.09699654579 0.00016362783467556481 0.00040161266416613656
0.4494892657 -0.09699654579 0.00017532955820317493 0.0004343715127934598
0.4548107088 -0.09699654579 0.00018794391329286173 0.00046701177280371336
0.4601321816 -0.09699654579 0.0002004917391935345 0.0004992159479297818
0.4654536247 -0.09699654579 0.00020300251907710257 0.0005287924753023751
0.4707750976 -0.09699654579 0.0001953371177720681 0.0005586233523374988
0.4760965407 -0.09699654579 0.00018563200398905917 0.0005894817843262061
0.4814180136 -0.09699654579 0.0001791138912279847 0.0006193240507580992
0.4867394567 -0.09699654579 0.000169657369667127 0.0006471769134887478
0.4920609295 -0.09699654579 0.00015081479191650292 0.0006626483931954616
0.4973823726 -0.09699654579 0.00012973466420772422 0.0006747547940767965
0.5027038455 -0.09699654579 0.0001108599312280457 0.0006868709739680495
0.5080252886 -0.09699654579 9.071513446943173e-05 0.0006988259350140621
0.5133467317 -0.09699654579 7.236761778337272e-05 0.0007018747002495711
0.5186682343 -0.09699654579 5.501840578955802e-05 0.000694086484974246
0.5239896774 -0.09699654579 4.0363960042764795e-05 0.0006878912729822277
0.5293111205 -0.09699654579 2.3881236674448097e-05 0.0006810003680231461
0.5346325636 -0.09699654579 1.2915058033195124e-05 0.0006692462059456831
0.5399540663 -0.09699654579 1.0416510832148208e-05 0.0006531730553357537
0.5452755094 -0.09699654579 7.477483553044057e-06 0.0006381530162694968
0.5505969524 -0.09699654579 4.670259140381311e-06 0.0006220375165101807
0.5559183955 -0.09699654579 1.1698524617271547e-05 0.0006044895539426659
0.5612398982 -0.09699654579 2.0894468131470864e-05 0.000588034880797011
0.5665613413 -0.09699654579 2.9230787400893768e-05 0.0005715863336721179
0.5718827844 -0.09699654579 4.3296938421098905e-05 0.0005542307392282672
0.5772042274 -0.09699654579 5.749409062410779e-05 0.000540022390139274
0.5825257301 -0.09699654579 7.406836604034117e-05 0.0005258871028826305
0.5878471732 -0.09699654579 9.29773520331532e-05 0.0005126124008562564
0.5931686163 -0.09699654579 0.00011322883359969461 0.0005023744604305237
0.5984900594 -0.09699654579 0.0001328095659742385 0.000492342517175024
0.6038115621 -0.09699654579 0.00015282930551398553 0.00048312890461619715
0.6091330051 -0.09699654579 0.000172258393665651 0.00047478420137252425
0.6144544482 -0.09699654579 0.00019080886789623531 0.00046592645142978225
0.6197758913 -0.09699654579 0.0002056024630315067 0.00045866506704002075
0.625097394 -0.09699654579 0.00022320843487646564 0.00045083099066781367
0.6304188371 -0.09699654579 0.00023841655540709423 0.00043937974972764395
0.6357402802 -0.09699654579 0.0002509660737928873 0.00042781121462533216
0.6410617828 -0.09699654579 0.00026561271861441003 0.0004135023648476234
0.6463832259 -0.09699654579 0.0002765789370723336 0.0003936170644828103
0.651704669 -0.09699654579 0.00028928325856225027 0.00037054273346429713
0.6570261121 -0.09699654579 0.0003035856688979447 0.0003405752985841147
0.6623476148 -0.09699654579 0.00032045684176789003 0.0003071277407240106
0.6676690578 -0.09699654579 0.0003363883353745344 0.0002648044573032667
0.6729905009 -0.09699654579 0.0003591812570518635 0.00021805688377510597
0.678311944 -0.09699654579 0.00038082781483250646 0.00016351032814162676
0.6836334467 -0.09699654579 0.0004094586791586961 0.00010256980139603089
0.6889548898 -0.09699654579 0.0004491976038883173 3.528526207538866e-05
0.6942763329 -0.09699654579 0.0004935915818338557 -4.532626262181195e-05
0.6995977759 -0.09699654579 0.0005463001528399774 -0.0001332911634928733
0.7049192786 -0.09699654579 0.0006128003680629183 -0.00022467090355439846
0.7102407217 -0.09699654579 0.0006938522373799012 -0.0003247718654035034
0.7155621648 -0.09699654579 0.0007918637969701179 -0.00043204807999729165
0.7208836079 -0.09699654579 0.0009057604325643066 -0.00054950792415624
0.7262051105 -0.09699654579 0.0010425872627102713 -0.0006694982533543156
0.7315265536 -0.09699654579 0.0011941129313495908 -0.0007856350807082305
0.7368479967 -0.09699654579 0.001375671230734794 -0.0009123739484141462
0.7421694398 -0.09699654579 0.001585367078406934 -0.0010302953320813096
0.7474909425 -0.09699654579 0.0018205010510973236 -0.0011470484185133153
0.7528123856 -0.09699654579 0.002085825650602962 -0.001252729174943725
0.7581338286 -0.09699654579 0.002379798670847579 -0.0013408385365518086
-0.3008363545 -0.09367749095 -4.038398439116785e-05 5.0182316767144255e-06
-0.2955148816 -0.09367749095 -8.252306322232147e-05 2.9846894927476792e-05
-0.2901934385 -0.09367749095 -0.0001392278286483115 6.616442134442797e-05
-0.2848719656 -0.09367749095 -0.00018714565168669324 7.723727449897873e-05
-0.2795505226 -0.09367749095 -0.00023269514020238407 7.134056617255197e-05
-0.2742290497 -0.09367749095 -0.0002785485426501406 4.0086821067383e-05
-0.2689076066 -0.09367749095 -0.0003295416853918401 -4.683145457809789e-06