VARIABLES = X,Y,phix,phiy
ZONE I=200,J=200,F=POINT 
-0.3008363545 -0.1003156006 4.419332288445434e-05 -0.00013077202433790618
-0.2955148816 -0.1003156006 5.306926556005597e-05 -0.00015770019028644023
-0.2901934385 -0.1003156006 3.735209909360799e-05 -0.0001881146101292441
-0.2848719656 -0.1003156006 1.4194362701205167e-05 -0.0002206865465232404
-0.2795505226 -0.1003156006 1.614657460662519e-05 -0.00024294306035284292
-0.2742290497 -0.1003156006 4.958370282472229e-05 -0.0002483810731020155
-0.2689076066 -0.1003156006 7.047903642829575e-05 -0.0002792611736381905
-0.2635861337 -0.1003156006 7.756106602670256e-05 -0.0002832298812276514
-0.2582646906 -0.1003156006 0.0001190938674096535 -0.00027542017759894105
-0.2529432178 -0.1003156006 0.00019387582082218877 -0.00026112895769429026
-0.2476217598 -0.1003156006 0.0003021331375816916 -0.0002359932642473278
-0.2423003018 -0.1003156006 0.00032704786561535166 -0.0002482901266696123
-0.2369788438 -0.1003156006 0.00027795693341937006 -0.0002993421050632516
-0.2316573858 -0.1003156006 0.00021354047417935926 -0.0003539532602582101
-0.2263359278 -0.1003156006 0.00015630015726831532 -0.0003923053263359663
-0.2210144699 -0.1003156006 0.00018592340063645582 -0.00038447379745984087
-0.2156930119 -0.1003156006 0.0002272149007673652 -0.0003719462354633329
-0.2103715539 -0.1003156006 0.00028590802017845057 -0.00034127518128607766
-0.2050500959 -0.1003156006 0.00032003691569163243 -0.00027491352358532245
-0.1997286379 -0.1003156006 0.00035635027881253736 -0.00020753785980453062
-0.19440718 -0.1003156006 0.0003973169957623294 -0.00013600055921400374
-0.189085722 -0.1003156006 0.00035701027880155373 -9.298109557978193e-05
-0.183764264 -0.1003156006 0.0002827404734788696 -2.8616421501601548e-05
-0.178442806 -0.1003156006 0.000210826192006695 2.574556000525882e-05
-0.173121348 -0.1003156006 0.00016248389349891095 6.778663236802058e-05
-0.16779989 -0.1003156006 0.0001315007882789049 0.0001052050990172726
-0.1624784321 -0.1003156006 8.772273846864699e-05 0.00016366653903446268
-0.1571569741 -0.1003156006 4.8043001603141896e-05 0.00018378983782046753
-0.1518355161 -0.1003156006 1.1757084827664788e-05 0.0001865430942190118
-0.1465140581 -0.1003156006 -2.5314504718194205e-05 0.00018997695471098923
-0.1411926001 -0.1003156006 -5.880072824234684e-05 0.00018885530975580687
-0.1358711421 -0.1003156006 -8.948746960843744e-05 0.00018609382886855487
-0.1305496842 -0.1003156006 -0.0001215638938745458 0.0001833421519538704
-0.1252282262 -0.1003156006 -0.00015211389662238642 0.00018304130549333383
-0.1199067682 -0.1003156006 -0.00018496079015339396 0.00018613578130119622
-0.1145853102 -0.1003156006 -0.00021814068527515647 0.00019186036608544939
-0.1092638522 -0.1003156006 -0.000251904164127611 0.00019758497674975735
-0.1039423943 -0.1003156006 -0.0002856212652982591 0.00020121095027594718
-0.09862093627 -0.1003156006 -0.0003202229005702033 0.000194342592085174
-0.09329947084 -0.1003156006 -0.00035634243532792724 0.00018686023406964372
-0.08797801286 -0.1003156006 -0.0003907313008566829 0.00017942531981290477
-0.08265655488 -0.1003156006 -0.0004255224486136372 0.00017097067768341605
-0.0773350969 -0.1003156006 -0.000441527778363171 0.000151196259260282
-0.07201363891 -0.1003156006 -0.00045838422740093315 0.00013149181573797266
-0.06669218093 -0.1003156006 -0.0004752007137142492 0.000111838838516486
-0.06137072667 -0.1003156006 -0.0004888810320179838 8.872741242918204e-05
-0.05604926869 -0.1003156006 -0.00048463844408954364 6.799064597696549e-05
-0.05072781071 -0.1003156006 -0.0004750838727491944 4.900876936628409e-05
-0.045406349 -0.1003156006 -0.0004675511434064254 2.977813810453174e-05
-0.04008489102 -0.1003156006 -0.00045757907585072035 1.0747054107402575e-05
-0.03476343304 -0.1003156006 -0.00044742948156565465 -6.147801879525543e-06
-0.02944197692 -0.1003156006 -0.0004387208036068756 -1.681175704761353e-05
-0.02412051894 -0.1003156006 -0.00043062123457219057 -2.762490707307183e-05
-0.01879905909 -0.1003156006 -0.00042206891848728335 -3.855512897491864e-05
-0.01347760204 -0.1003156006 -0.0004129317844514862 -4.9320894727026784e-05
-0.00815614406 -0.1003156006 -0.00039787361625398575 -5.579006396861393e-05
-0.00283468538 -0.1003156006 -0.00037320757635731026 -5.810362735891348e-05
0.002486772602 -0.1003156006 -0.00034693171001864216 -6.214114701376278e-05
0.007808230817 -0.1003156006 -0.0003214552433128476 -6.619470818357576e-05
0.0131296888 -0.1003156006 -0.0002982279291830633 -6.880534943938958e-05
0.01845114678 -0.1003156006 -0.0002755382040999678 -5.414281576197993e-05
0.02377260476 -0.1003156006 -0.0002542912566898582 -2.5575179139807607e-05
0.02909406275 -0.1003156006 -0.000231456013870393 4.317681675171786e-06
0.03441552073 -0.1003156006 -0.00020793047807794572 3.415760814409145e-05
0.03973697871 -0.1003156006 -0.00018617035366749515 6.288687970850201e-05
0.04505843669 -0.1003156006 -0.00017602583118839365 9.071064325383174e-05
0.05037989467 -0.1003156006 -0.00018510976396121726 0.00011980169310868765
0.05570135266 -0.1003156006 -0.00019556457323735197 0.00015050074494709557
0.06102281436 -0.1003156006 -0.00020530367326341976 0.00018171766362971416
0.06634426862 -0.1003156006 -0.00021536595330530088 0.0002113313884294762
0.0716657266 -0.1003156006 -0.0002248427068198459 0.00023997915216310305
0.07698718458 -0.1003156006 -0.000263538386896138 0.00023554365222524907
0.08230864257 -0.1003156006 -0.00030384265731923346 0.00022840459392923232
0.08763010055 -0.1003156006 -0.00034617894934990375 0.0002208763747025314
0.09295155853 -0.1003156006 -0.000387737706925023 0.00021364529696076025
0.09827301651 -0.1003156006 -0.00042840590537357654 0.0002066969262596787
0.1035944745 -0.1003156006 -0.0004579516343856493 0.00018940858427914163
0.1089159325 -0.1003156006 -0.00046324761104020885 0.00015149767978361677
0.1142373979 -0.1003156006 -0.0004706315629442246 0.00011356385032705891
0.1195588559 -0.1003156006 -0.0004758049490461208 7.850524908949737e-05
0.1248803139 -0.1003156006 -0.00048300735552001727 4.2320846888192686e-05
0.1302017719 -0.1003156006 -0.0004882414289152826 5.545294715167161e-06
0.1355232298 -0.1003156006 -0.00047139013419087003 -2.1317052475855054e-05
0.1408446878 -0.1003156006 -0.00043867278925373597 -4.085360040156636e-05
0.1461661458 -0.1003156006 -0.00040594923019767967 -6.12593412875387e-05
0.1514876038 -0.1003156006 -0.000375265013105736 -8.16944590701565e-05
0.1568090618 -0.1003156006 -0.0003420803572969636 -0.00010210412430874531
0.1621305197 -0.1003156006 -0.0003106742398845204 -0.00012246280601794832
0.1674519777 -0.1003156006 -0.00028007182556113135 -0.0001309115025416967
0.1727734357 -0.1003156006 -0.00025334828343301943 -0.00013428356064152316
0.1780948937 -0.1003156006 -0.0002258794500871632 -0.00013749611977084347
0.1834163517 -0.1003156006 -0.0001982493889573331 -0.00014083243732305136
0.1887378097 -0.1003156006 -0.00017020646751346796 -0.00014408343642866904
0.1940592676 -0.1003156006 -0.00014381867692741897 -0.0001465738221713836
0.1993807256 -0.1003156006 -0.00010502533428649164 -0.0001321244256958887
0.2047021836 -0.1003156006 -6.484252930532433e-05 -0.00011219526196288223
0.2100236416 -0.1003156006 -2.3076461387568306e-05 -9.220916737311055e-05
0.2153450996 -0.1003156006 1.3679127363622316e-05 -7.374234340634104e-05
0.2206665576 -0.1003156006 5.239558350146475e-05 -5.4842709381014516e-05
0.2259880155 -0.1003156006 9.282571479337925e-05 -3.5743795563814337e-05
0.2313094735 -0.1003156006 0.00010586422409566698 1.4217713880604653e-05
0.2366309315 -0.1003156006 0.00011353200019601631 6.93153718371632e-05
0.2419523895 -0.1003156006 0.00012041065889592605 0.00012241554186417965
0.2472738475 -0.1003156006 0.0001278680317327412 0.00017571131290710338
0.2525953054 -0.1003156006 0.0001336739021219968 0.0002309238445153639
0.2579167783 -0.1003156006 0.00013928189684803976 0.0002822957030167634
0.2632382214 -0.1003156006 0.00010592085947705946 0.0003024380092477182
0.2685596943 -0.1003156006 6.42657765510886e-05 0.0003158373420454476
0.2738811374 -0.1003156006 1.963692458336486e-05 0.00033065392028013046
0.2792026103 -0.1003156006 -2.4674511827921383e-05 0.0003442518205666401
0.2845240533 -0.1003156006 -6.218394091901348e-05 0.0003559948088993379
0.2898455262 -0.1003156006 -0.0001010346465238368 0.0003676299513020628
0.2951669693 -0.1003156006 -0.00011118787818713146 0.0003364998997814124
0.3004884422 -0.1003156006 -0.00011503172067861768 0.0002986193088548887
0.3058098853 -0.1003156006 -0.00012000348452112725 0.00026716842166729285
0.3111313581 -0.1003156006 -0.00012649513512647835 0.00023580281749001892
0.3164528012 -0.1003156006 -0.0001299750390289501 0.00020437317174254137
0.3217742741 -0.1003156006 -0.000132762804088011 0.00017375421580112502
0.3270957172 -0.1003156006 -8.495095540084358e-05 0.00017365583982205477
0.3324171901 -0.1003156006 -4.0383981252428964e-05 0.00017412127359654457
0.3377386332 -0.1003156006 6.183061372085209e-06 0.0001742935631477783
0.343060106 -0.1003156006 5.2688933432978225e-05 0.00017453820044160498
0.3483815491 -0.1003156006 9.357589148627827e-05 0.00017616118291405975
0.353703022 -0.1003156006 0.00012421050664289065 0.00019310838141531
0.3590244651 -0.1003156006 0.0001371359484201951 0.0002445889328796695
0.364345938 -0.1003156006 0.00015360364759441195 0.0002962244150574955
0.369667381 -0.1003156006 0.00016407004318979315 0.0003413089329749137
0.3749888539 -0.1003156006 0.00017628875931420535 0.00038815597711441786
0.380310297 -0.1003156006 0.00018884712901757965 0.00043555342395605926
0.3856317699 -0.1003156006 0.00015364279758628714 0.00046526846313443284
0.390953213 -0.1003156006 0.0001086094258202283 0.00048606261321164416
0.3962746859 -0.1003156006 6.677009534169038e-05 0.0005063904690236444
0.4015961289 -0.1003156006 2.55130254144689e-05 0.0005271515649737283
0.4069176018 -0.1003156006 -1.5392125860764178e-05 0.0005485671141720235
0.4122390449 -0.1003156006 -4.667272779218626e-05 0.0005451188619917001
0.4175605178 -0.1003156006 -7.640106456920731e-05 0.0005068613290774847
0.4228819609 -0.1003156006 -0.00010494635111112606 0.00046668367017236017
0.4282034338 -0.1003156006 -0.0001343835355866561 0.0004268675024466057
0.4335248768 -0.1003156006 -0.00015757694998396048 0.0003930207670801042
0.4388463497 -0.1003156006 -0.00016697700137951977 0.00035734321865359885
0.4441677928 -0.1003156006 -0.00013302881974452585 0.00031677836850363904
0.4494892657 -0.1003156006 -0.0001007934778989261 0.0002770026213548076
0.4548107088 -0.1003156006 -6.904129832090554e-05 0.00024131704372700792
0.4601321816 -0.1003156006 -3.8592598009746607e-05 0.00020354906803437344
0.4654536247 -0.1003156006 4.219052899290228e-06 0.0001808144607743964
0.4707750976 -0.1003156006 5.916519984828606e-05 0.0001813289705205953
0.4760965407 -0.1003156006 0.00011165430794879106 0.0001821253790684297
0.4814180136 -0.1003156006 0.0001623850496224004 0.00018271498921521557
0.4867394567 -0.1003156006 0.0002153732764974575 0.0001834206115866768
0.4920609295 -0.1003156006 0.000254964551276938 0.00020436282365874056
0.4973823726 -0.1003156006 0.0002882090897860933 0.00023075109795498195
0.5027038455 -0.1003156006 0.0003255600635269139 0.0002570863380076652
0.5080252886 -0.1003156006 0.00035961570605386986 0.0002836156457739861
0.5133467317 -0.1003156006 0.00038381463121198384 0.0003079063200497688
0.5186682343 -0.1003156006 0.00039467242801936376 0.00033652682402072754
0.5239896774 -0.1003156006 0.00040369763218392235 0.00036515514707814045
0.5293111205 -0.1003156006 0.00041346404852921217 0.00039291286423002373
0.5346325636 -0.1003156006 0.0004185102925692509 0.0004128461910088092
0.5399540663 -0.1003156006 0.00041394577752339276 0.00042760958144397946
0.5452755094 -0.1003156006 0.0004064511142933909 0.00044243760038126863
0.5505969524 -0.1003156006 0.00040322765140929844 0.00045684985880784076
0.5559183955 -0.1003156006 0.0003978344101482534 0.00045833160093400067
0.5612398982 -0.1003156006 0.0003865193815144173 0.0004560098166848489
0.5665613413 -0.1003156006 0.0003778876115923652 0.00045368843916762994
0.5718827844 -0.1003156006 0.000370238690988294 0.00044545381961755753
0.5772042274 -0.1003156006 0.00036471246740431946 0.0004272307659983167
0.5825257301 -0.1003156006 0.000356241280135043 0.0004089093813493485
0.5878471732 -0.1003156006 0.00035463067311198833 0.00038650771428302267
0.5931686163 -0.1003156006 0.000353308396363253 0.00035783488260505286
0.5984900594 -0.1003156006 0.00035358503181830966 0.00032906679117896483
0.6038115621 -0.1003156006 0.0003594501657232087 0.00029307970754173653
0.6091330051 -0.1003156006 0.0003657961926593843 0.00025653532341932594
0.6144544482 -0.1003156006 0.0003756566929259914 0.00021488737966961986
0.6197758913 -0.1003156006 0.0003887533396686005 0.00017068805265848405
0.625097394 -0.1003156006 0.00040384513753801023 0.0001241686995150745
0.6304188371 -0.1003156006 0.00042343992308731905 7.434808954815015e-05
0.6357402802 -0.1003156006 0.0004454432956984911 2.3351697773520896e-05
0.6410617828 -0.1003156006 0.0004678090675714688 -3.379574438339851e-05
0.6463832259 -0.1003156006 0.0004896093212403696 -9.222345761560971e-05
0.651704669 -0.1003156006 0.0005134190270890029 -0.0001539174626194215
0.6570261121 -0.1003156006 0.0005449527570363055 -0.00022070822336577609
0.6623476148 -0.1003156006 0.0005731360557463958 -0.0002942939525480062
0.6676690578 -0.1003156006 0.0006012808027529726 -0.00037121050488247016
0.6729905009 -0.1003156006 0.0006357432891311443 -0.00045835373267773586
0.678311944 -0.1003156006 0.0006719588066232538 -0.0005506475238495955
0.6836334467 -0.1003156006 0.000712820381292437 -0.0006518138397595677
0.6889548898 -0.1003156006 0.0007577139981902474 -0.0007641976105179561
0.6942763329 -0.1003156006 0.0008111149858042324 -0.0008858792768179633
0.6995977759 -0.1003156006 0.0008697523010614572 -0.0010171244553610632
0.7049192786 -0.1003156006 0.000933206004747713 -0.001157199285196746
0.7102407217 -0.1003156006 0.0010065567109731452 -0.0013136365745284506
0.7155621648 -0.1003156006 0.001092172505571985 -0.0014824823895684572
0.7208836079 -0.1003156006 0.0011910973997065612 -0.0016634834755797586
0.7262051105 -0.1003156006 0.00129991632985115 -0.001858405091294726
0.7315265536 -0.1003156006 0.0014243846314343253 -0.0020704184955287
0.7368479967 -0.1003156006 0.0015704554690295356 -0.0023025780854658276
0.7421694398 -0.1003156006 0.0017345856968373585 -0.0025485367884619707
0.7474909425 -0.1003156006 0.0019190480354722777 -0.002793829116520364
0.7528123856 -0.1003156006 0.0021347235812791978 -0.0030716292949742887
0.7581338286 -0.1003156006 0.0023752916014131986 -0.0033671623516174517
-0.3008363545 -0.09699654579 7.514884161902444e-06 -0.00012616343501435816
-0.2955148816 -0.09699654579 1.745665614936143e-05 -0.0001407368157961217
-0.2901934385 -0.09699654579 -1.79421969953049e-05 -0.00018176382564992255
-0.2848719656 -0.09699654579 -3.225379222984117e-05 -0.00021139336542294233
-0.2795505226 -0.09699654579 -3.6567374929905025e-05 -0.0002272079939604062
-0.2742290497 -0.09699654579 -2.7907646758543987e-05 -0.0002497963380374434
-0.2689076066 -0.09699654579 1.2043746162048588e-06 -0.00028639554523190064
-0.2635861337 -0.09699654579 2.083537658820723e-05 -0.00031046190613564253
-0.2582646906 -0.09699654579 4.443235970058708e-05 -0.00030506312407172355
-0.2529432178 -0.09699654579 0.00013479860186230397 -0.00028116808382375766
-0.2476217598 -0.09699654579 0.0002791906301077803 -0.0002417463078041175
-0.2423003018 -0.09699654579 0.00036409406945005413 -0.0002378857987300597
-0.2369788438 -0.09699654579 0.0002989584699491794 -0.00029891365263943115
-0.2316573858 -0.09699654579 0.000234318887020873 -0.00034750508043831146
-0.2263359278 -0.09699654579 0.00016551801382968926 -0.0004083787586262808
-0.2210144699 -0.09699654579 0.0001811181104994259 -0.00041263356183403067
-0.2156930119 -0.09699654579 0.00023969099678879227 -0.0003847858884849048
-0.2103715539 -0.09699654579 0.0003119309823583424 -0.000356962826285988
-0.2050500959 -0.09699654579 0.00035509666666111477 -0.00030088430410555835
-0.1997286379 -0.09699654579 0.0003964161571428385 -0.0002293407338018191
-0.19440718 -0.09699654579 0.0004430460314907516 -0.00015570187228931777
-0.189085722 -0.09699654579 0.00039721635514078406 -0.00011144225129519885
-0.183764264 -0.09699654579 0.0003232778996045502 -6.691700659055193e-05
-0.178442806 -0.09699654579 0.00022500125655877686 -2.6953890688806975e-05
-0.173121348 -0.09699654579 0.00016834486057097243 1.859710065339932e-05
-0.16779989 -0.09699654579 0.0001175620495843289 8.82738015977245e-05
-0.1624784321 -0.09699654579 7.278365930338456e-05 0.0001703110231818319
-0.1571569741 -0.09699654579 3.061557783098515e-05 0.0001896330001530087
-0.1518355161 -0.09699654579 -1.0952087533576432e-05 0.00019207764463611123
-0.1465140581 -0.09699654579 -6.17571086669823e-05 0.00019320000364350068
-0.1411926001 -0.09699654579 -0.00010956300565105059 0.00019242992123574037
-0.1358711421 -0.09699654579 -0.00014064757926363967 0.00019261633727962076
-0.1305496842 -0.09699654579 -0.00017317228916667474 0.0001939824256726117
-0.1252282262 -0.09699654579 -0.00020267135663612392 0.00019753371329884383
-0.1199067682 -0.09699654579 -0.00023669082208048895 0.0002042709631612927
-0.1145853102 -0.09699654579 -0.00027014038037098475 0.0002122568438866464
-0.1092638522 -0.09699654579 -0.0003049040619557755 0.00022060019931047863
-0.1039423943 -0.09699654579 -0.00034017442903989194 0.00022760788796738414
-0.09862093627 -0.09699654579 -0.00037669212826204826 0.00022051403388637775
-0.09329947084 -0.09699654579 -0.00041314307288961257 0.00021239059135929228
-0.08797801286 -0.09699654579 -0.0004506289628677661 0.00020313714796038384
-0.08265655488 -0.09699654579 -0.00048646397184174106 0.0001938498622550157
-0.0773350969 -0.09699654579 -0.000500873690820612 0.00016999895658436923
-0.07201363891 -0.09699654579 -0.0005130243103986405 0.00014340653323254723
-0.06669218093 -0.09699654579 -0.0005256012141696896 0.00011656013806216277
-0.06137072667 -0.09699654579 -0.0005376964644759172 8.875038185151905e-05
-0.05604926869 -0.09699654579 -0.000531192407152584 6.646831224899343e-05
-0.05072781071 -0.09699654579 -0.0005201927251087037 4.692943848813541e-05
-0.045406349 -0.09699654579 -0.000509662949023584 2.7401043284943406e-05
-0.04008489102 -0.09699654579 -0.0004995303958485426 7.927796903036394e-06
-0.03476343304 -0.09699654579 -0.0004887723534912849 -9.663086076021316e-06
-0.02944197692 -0.09699654579 -0.00048031689260481753 -2.175480661980824e-05
-0.02412051894 -0.09699654579 -0.0004728097249494062 -3.369758993792523e-05
-0.01879905909 -0.09699654579 -0.00046498180325300106 -4.575306978487897e-05
-0.01347760204 -0.09699654579 -0.00045832389116774914 -5.805997197639774e-05
-0.00815614406 -0.09699654579 -0.00043797759924131725 -6.671379074062342e-05
-0.00283468538 -0.09699654579 -0.00041006792770017337 -7.185844710285839e-05
0.002486772602 -0.09699654579 -0.00037964222261239496 -7.738479712796082e-05
0.007808230817 -0.09699654579 -0.0003497944593944754 -8.294732946230344e-05
0.0131296888 -0.09699654579 -0.0003214535954806559 -8.824610966235315e-05
0.01845114678 -0.09699654579 -0.00029309283290157687 -7.247051392212639e-05
0.02377260476 -0.09699654579 -0.00026750308269972184 -4.049958641688452e-05
0.02909406275 -0.09699654579 -0.0002397655794589952 -7.440176978062312e-06
0.03441552073 -0.09699654579 -0.00021296226159825236 2.583101341250373e-05
0.03973697871 -0.09699654579 -0.00018681584443651104 5.7764594169189745e-05
0.04505843669 -0.09699654579 -0.0001724932819622388 8.969937004344301e-05
0.05037989467 -0.09699654579 -0.0001840119009215973 0.00012384121375488843
0.05570135266 -0.09699654579 -0.00019521207883426916 0.0001582499591003136
0.06102281436 -0.09699654579 -0.00020596266142817237 0.00019423733528525758
0.06634426862 -0.09699654579 -0.00021808500060377817 0.00022790343662063855
0.0716657266 -0.09699654579 -0.00022853191529070816 0.0002616045543812142
0.07698718458 -0.09699654579 -0.0002730647035668286 0.0002555455044015824
0.08230864257 -0.09699654579 -0.00031903506613972543 0.00024709150895481184
0.08763010055 -0.09699654579 -0.00036567001782018165 0.00023869998991406507
0.09295155853 -0.09699654579 -0.0004100559167504764 0.00023058635301241435
0.09827301651 -0.09699654579 -0.0004555845011307016 0.00022238958292140646
0.1035944745 -0.09699654579 -0.0004867572207378187 0.0002020592835874332
0.1089159325 -0.09699654579 -0.0004942012180104119 0.00015972157929367698
0.1142373979 -0.09699654579 -0.0005009524929622739 0.00011864793822454022
0.1195588559 -0.09699654579 -0.000508259053773382 7.870098500028972e-05
0.1248803139 -0.09699654579 -0.0005133663756835674 3.870728993034489e-05
0.1302017719 -0.09699654579 -0.0005197935425317339 -2.1189520094208816e-06
0.1355232298 -0.09699654579 -0.0005002102155334852 -2.9421573953009894e-05
0.1408446878 -0.09699654579 -0.0004655085735198212 -4.7929338545863735e-05
0.1461661458 -0.09699654579 -0.0004308430053572154 -6.623987954503284e-05
0.1514876038 -0.09699654579 -0.00039563544658378365 -8.447959625557415e-05
0.1568090618 -0.09699654579 -0.0003616562343766246 -0.00010265085282019577
0.1621305197 -0.09699654579 -0.0003271162652324324 -0.00012173696889879799
0.1674519777 -0.09699654579 -0.0002974053055744741 -0.00013011766447529094
0.1727734357 -0.09699654579 -0.00027039958872568945 -0.00013402728313873256
0.1780948937 -0.09699654579 -0.0002412192064259332 -0.00013684559434541319
0.1834163517 -0.09699654579 -0.0002127412615534202 -0.00014011625828673214
0.1887378097 -0.09699654579 -0.00018630532539840486 -0.00014528453787496711
0.1940592676 -0.09699654579 -0.00015736264222609482 -0.00015047328654661126
0.1993807256 -0.09699654579 -0.00011588356885189449 -0.00013909913120869392
0.2047021836 -0.09699654579 -6.953565495847604e-05 -0.000123282977784333
0.2100236416 -0.09699654579 -2.6421839892794636e-05 -0.00010639398200298793
0.2153450996 -0.09699654579 1.5979614474411245e-05 -8.945819683583363e-05
0.2206665576 -0.09699654579 5.8835069052959546e-05 -7.251109598762372e-05
0.2259880155 -0.09699654579 0.00010154441382686533 -5.5724745969077644e-05
0.2313094735 -0.09699654579 0.00011689214345879734 -3.1893159016938327e-06
0.2366309315 -0.09699654579 0.00012305250347714148 5.886985307278321e-05
0.2419523895 -0.09699654579 0.00012967880590748922 0.00012096775744216099
0.2472738475 -0.09699654579 0.00013667498816535267 0.000182975922769572
0.2525953054 -0.09699654579 0.0001438066342205989 0.00024167877090934195
0.2579167783 -0.09699654579 0.0001513799929504493 0.0002974372045507566
0.2632382214 -0.09699654579 0.00011044856573537372 0.00031838538857181694
0.2685596943 -0.09699654579 5.96703802536579e-05 0.0003327978380715937
0.2738811374 -0.09699654579 1.2364998145011492e-05 0.000346405764858338
0.2792026103 -0.09699654579 -3.1848538269219985e-05 0.00036045202548952063
0.2845240533 -0.09699654579 -7.471181467891342e-05 0.00037382405653710944
0.2898455262 -0.09699654579 -0.00012147678274704623 0.00038775913598869735
0.2951669693 -0.09699654579 -0.00012655845948312007 0.00034790991569190287
0.3004884422 -0.09699654579 -0.00012965257435801068 0.00030806654555741545
0.3058098853 -0.09699654579 -0.00013640849195700733 0.00026746532122746313
0.3111313581 -0.09699654579 -0.00014036084555409033 0.00022696292102680337
0.3164528012 -0.09699654579 -0.0001455977748544358 0.0001878824723144064
0.3217742741 -0.09699654579 -0.0001470510848192427 0.00015605019765709243
0.3270957172 -0.09699654579 -8.963696983189964e-05 0.0001547895146299769
0.3324171901 -0.09699654579 -3.147696010779098e-05 0.00015366944008750888
0.3377386332 -0.09699654579 2.4634935957846303e-05 0.00015312543847512288
0.343060106 -0.09699654579 7.558259499557472e-05 0.00015325520424833847
0.3483815491 -0.09699654579 0.00012841861397313797 0.0001531569814792651
0.353703022 -0.09699654579 0.00016698784779026386 0.00017495811378372418
0.3590244651 -0.09699654579 0.0001875013703324999 0.0002356121888340699
0.364345938 -0.09699654579 0.000204945895053744 0.00029058204944100517
0.369667381 -0.09699654579 0.0002210532644928839 0.00034563123721886656
0.3749888539 -0.09699654579 0.00023605832527459858 0.00040064878369332104
0.380310297 -0.09699654579 0.0002501479809974868 0.0004524077768096921
0.3856317699 -0.09699654579 0.00021247826990278618 0.0004813822816150759
0.390953213 -0.09699654579 0.00016039785903127326 0.0005061758865646725
0.3962746859 -0.09699654579 0.00010570987254430994 0.0005322387483760447
0.4015961289 -0.09699654579 5.5300464667035144e-05 0.0005561093667168737
0.4069176018 -0.09699654579 9.180600943037135e-06 0.0005782306818837922
0.4122390449 -0.09699654579 -3.29100153446372e-05 0.0005696431197075067
0.4175605178 -0.09699654579 -7.131343786080472e-05 0.0005210809638807698
0.4228819609 -0.09699654579 -0.00010410873887958698 0.00047799017668180186
0.4282034338 -0.09699654579 -0.00013537925641232738 0.0004370553902436951
0.4335248768 -0.09699654579 -0.00016656523922365212 0.0003953104734133696
0.4388463497 -0.09699654579 -0.00017998096005382569 0.00034857732429831697
0.4441677928 -0.09699654579 -0.0001458748222199371 0.0003038125387979196
0.4494892657 -0.09699654579 -0.00011043121286153016 0.0002595773858423362
0.4548107088 -0.09699654579 -7.615739651544473e-05 0.0002153954867086152
0.4601321816 -0.09699654579 -3.9308020138123025e-05 0.00017218634423203703
0.4654536247 -0.09699654579 9.633430694204625e-07 0.00015033448813061843
0.4707750976 -0.09699654579 6.094836204410175e-05 0.00015094628062033104
0.4760965407 -0.09699654579 0.0001227027183425624 0.00015237186591815423
0.4814180136 -0.09699654579 0.00018104051093498195 0.0001530218894095639
0.4867394567 -0.09699654579 0.0002361798195369772 0.00015382677134503293
0.4920609295 -0.09699654579 0.0002756403749275662 0.00017885747897470653
0.4973823726 -0.09699654579 0.0003113970879209628 0.00020986917522214425
0.5027038455 -0.09699654579 0.0003472108259843707 0.0002379601386956302
0.5080252886 -0.09699654579 0.00038197012917716634 0.00026738929698375577
0.5133467317 -0.09699654579 0.00040392850745675285 0.0002986047680195271
0.5186682343 -0.09699654579 0.00041166196972914476 0.00033071129806626636
0.5239896774 -0.09699654579 0.00042007958583795086 0.00035913539195374866
0.5293111205 -0.09699654579 0.00043069039226365657 0.00038939662233705827
0.5346325636 -0.09699654579 0.00042745374185529627 0.0004146814717966036
0.5399540663 -0.09699654579 0.00042082288759341565 0.00043020886712222115
0.5452755094 -0.09699654579 0.00041219429093055965 0.0004449560789352169
0.5505969524 -0.09699654579 0.00040493627975395075 0.0004607936134973932
0.5559183955 -0.09699654579 0.0003910201135960014 0.0004630613874113807
0.5612398982 -0.09699654579 0.00038023445714731026 0.0004605590870178558
0.5665613413 -0.09699654579 0.00036758381255146193 0.0004582429231935317
0.5718827844 -0.09699654579 0.0003558612863401368 0.00044916110944894644
0.5772042274 -0.09699654579 0.0003467673656186706 0.0004302165678546184
0.5825257301 -0.09699654579 0.0003394154761591742 0.0004115477679297318
0.5878471732 -0.09699654579 0.00033108625324258117 0.0003877056196135189
0.5931686163 -0.09699654579 0.00033169512726042986 0.00035789151825489136
0.5984900594 -0.09699654579 0.0003285491690895689 0.0003270787183592801
0.6038115621 -0.09699654579 0.00033196440815078663 0.00029129107746402765
0.6091330051 -0.09699654579 0.0003370612973606529 0.00025083503147465993
0.6144544482 -0.09699654579 0.00034478506148586876 0.00020998434976655502
0.6197758913 -0.09699654579 0.00035652394830231545 0.0001625730574931774
0.625097394 -0.09699654579 0.00037063989054327213 0.0001146705959801459
0.6304188371 -0.09699654579 0.0003894023098742561 6.263438320692023e-05
0.6357402802 -0.09699654579 0.0004055782248842642 9.067295480012872e-06
0.6410617828 -0.09699654579 0.0004254773672484221 -4.5917031329329926e-05
0.6463832259 -0.09699654579 0.0004469463544531122 -0.00010605677710254811
0.651704669 -0.09699654579 0.0004687904439938349 -0.00016856714315308086
0.6570261121 -0.09699654579 0.0004920188021368849 -0.0002388992802030918
0.6623476148 -0.09699654579 0.0005186071348584875 -0.0003131463681400238
0.6676690578 -0.09699654579 0.00054503973433406 -0.000392726517367181
0.6729905009 -0.09699654579 0.0005741676109960537 -0.0004796991231456899
0.678311944 -0.09699654579 0.0006042021146406461 -0.0005743803877999609
0.6836334467 -0.09699654579 0.0006388872893002975 -0.0006763134942016943
0.6889548898 -0.09699654579 0.0006785894165699031 -0.0007888871492789773
0.6942763329 -0.09699654579 0.0007223849427405146 -0.0009137068024692886
0.6995977759 -0.09699654579 0.0007710753436649681 -0.0010499697306954644
0.7049192786 -0.09699654579 0.0008273998327360129 -0.0011961744728830764
0.7102407217 -0.09699654579 0.0008952945540569274 -0.0013563607885312458
0.7155621648 -0.09699654579 0.0009719278116952718 -0.0015333869149984289
0.7208836079 -0.09699654579 0.0010578847517287722 -0.0017261690720730813
0.7262051105 -0.09699654579 0.0011592028144250012 -0.0019337026802358588
0.7315265536 -0.09699654579 0.0012685721392106742 -0.0021536154288683516
0.7368479967 -0.09699654579 0.0014002576481803365 -0.002392844694602634
0.7421694398 -0.09699654579 0.0015571486568312534 -0.002648613242982039
0.7474909425 -0.09699654579 0.0017337423968953253 -0.0029200972157402954
0.7528123856 -0.09699654579 0.0019362723275418985 -0.0032097376914193535
0.7581338286 -0.09699654579 0.0021700314282763204 -0.0035188654838996854
-0.3008363545 -0.09367749095 -3.4428178627868576e-05 -0.00011063212509673132
-0.2955148816 -0.09367749095 -4.809669017643473e-05 -0.0001235848299381899
-0.2901934385 -0.09367749095 -6.928191508736414e-05 -0.000172592993449418
-0.2848719656 -0.09367749095 -9.743653328761735e-05 -0.00019813014478348452
-0.2795505226 -0.09367749095 -9.701218512176239e-05 -0.00021715875104155453
-0.2742290497 -0.09367749095 -0.00011257651725645529 -0.00025497148848646877
-0.2689076066 -0.09367749095 -0.0001076865311966156 -0.00029378300274792866