VARIABLES = X,Y,phix,phiy
ZONE I=200,J=200,F=POINT 
-0.3008363545 -0.1003156006 -0.00015734845280432092 0.0008345159614735078
-0.2955148816 -0.1003156006 -0.0001802961180542344 0.0008756454374579649
-0.2901934385 -0.1003156006 -7.036980804657433e-05 0.0008846021510436015
-0.2848719656 -0.1003156006 3.3976175211030825e-05 0.000894873426844506
-0.2795505226 -0.1003156006 0.0001807119475722159 0.000923976848885253
-0.2742290497 -0.1003156006 0.0003417328591041556 0.0009901244586497525
-0.2689076066 -0.1003156006 0.0004984161171769295 0.0010756869712763562
-0.2635861337 -0.1003156006 0.0005283198403224168 0.0011195642301245388
-0.2582646906 -0.1003156006 0.0005730763833115117 0.0010702615040421187
-0.2529432178 -0.1003156006 0.0006389795668274804 0.0009565687334540524
-0.2476217598 -0.1003156006 0.0007416209715822293 0.0008696860708850364
-0.2423003018 -0.1003156006 0.0006195442740290847 0.0008683132893960719
-0.2369788438 -0.1003156006 0.0003146018060478844 0.0009155943560222749
-0.2316573858 -0.1003156006 -5.090892573292248e-05 0.001064306928208835
-0.2263359278 -0.1003156006 -0.0003834917464440502 0.0011980656671897023
-0.2210144699 -0.1003156006 -0.00027473649053682826 0.0011090445082187028
-0.2156930119 -0.1003156006 -0.00016121662671245745 0.0009779286197292266
-0.2103715539 -0.1003156006 1.1416913666502074e-05 0.0008632549049654269
-0.2050500959 -0.1003156006 -9.106267825974138e-05 0.0008233620478452885
-0.1997286379 -0.1003156006 -0.00023496384146021244 0.0007463612830393899
-0.19440718 -0.1003156006 -0.00033430815958641555 0.0005959829223660504
-0.189085722 -0.1003156006 -0.00035337241265579963 0.00043141371072778187
-0.183764264 -0.1003156006 -0.000379493110599317 0.00030247076253818927
-0.178442806 -0.1003156006 -0.0004089556092506675 0.00018447826777775395
-0.173121348 -0.1003156006 -0.0003366249447365644 0.0001255162414524699
-0.16779989 -0.1003156006 -0.0002372812707558299 7.384340739825313e-05
-0.1624784321 -0.1003156006 -0.00014101321467675456 2.7957056757231768e-05
-0.1571569741 -0.1003156006 -6.0202707170290314e-05 -2.9616485784369405e-05
-0.1518355161 -0.1003156006 2.779727793884728e-05 -0.00010058805477392012
-0.1465140581 -0.1003156006 0.00012506427665635717 -0.0001739824573761797
-0.1411926001 -0.1003156006 0.00019877584404553924 -0.00022022954058601883
-0.1358711421 -0.1003156006 0.00022726675626331483 -0.00021086838927635964
-0.1305496842 -0.1003156006 0.0002552387005132507 -0.0002014037853523562
-0.1252282262 -0.1003156006 0.0002808875071467716 -0.00018207648911334074
-0.1199067682 -0.1003156006 0.00028278357714710826 -0.0001476648706544823
-0.1145853102 -0.1003156006 0.0002787948298493706 -0.00011052410542014116
-0.1092638522 -0.1003156006 0.00027679766764630625 -7.661626541057417e-05
-0.1039423943 -0.1003156006 0.0002762845966763352 -4.4661855570398685e-05
-0.09862093627 -0.1003156006 0.00030088878218300844 -6.359593643813085e-05
-0.09329947084 -0.1003156006 0.00033046562914746503 -8.278452374741257e-05
-0.08797801286 -0.1003156006 0.000359455129548444 -0.00010197268733861302
-0.08265655488 -0.1003156006 0.0003868741130455687 -0.00011955244134266953
-0.0773350969 -0.1003156006 0.00038931798078397197 -0.00011545261527431429
-0.07201363891 -0.1003156006 0.000390231083332551 -0.00011139861296492095
-0.06669218093 -0.1003156006 0.00039317032114466623 -0.00010733283401783977
-0.06137072667 -0.1003156006 0.0003939083129532845 -0.00010070055209167359
-0.05604926869 -0.1003156006 0.0003970566347705507 -9.093654099233142e-05
-0.05072781071 -0.1003156006 0.00039995423189554134 -8.04117539479825e-05
-0.045406349 -0.1003156006 0.00040157553212954105 -6.884932262709278e-05
-0.04008489102 -0.1003156006 0.00040774601875618504 -5.9462150439525035e-05
-0.03476343304 -0.1003156006 0.000417324090855672 -5.253406757344659e-05
-0.02944197692 -0.1003156006 0.00043286216274695594 -5.012038122689093e-05
-0.02412051894 -0.1003156006 0.0004524756127264765 -4.7110647515450846e-05
-0.01879905909 -0.1003156006 0.00047177079762823336 -4.3267151941235944e-05
-0.01347760204 -0.1003156006 0.0004889501496513115 -4.0354546651052156e-05
-0.00815614406 -0.1003156006 0.0004901336554987016 -3.7747588622942566e-05
-0.00283468538 -0.1003156006 0.000480730557893239 -3.546109261379809e-05
0.002486772602 -0.1003156006 0.0004713553243073777 -3.2944599780450256e-05
0.007808230817 -0.1003156006 0.000458001690520063 -3.044794335832087e-05
0.0131296888 -0.1003156006 0.0004491936692668888 -2.81134559756575e-05
0.01845114678 -0.1003156006 0.00044257440732694365 -3.6531240405053e-05
0.02377260476 -0.1003156006 0.00044224461020165136 -5.339143153521739e-05
0.02909406275 -0.1003156006 0.00044118983013699987 -7.15870821565662e-05
0.03441552073 -0.1003156006 0.00043831723615070367 -8.977517063123206e-05
0.03973697871 -0.1003156006 0.00043924740652927154 -0.00010684610846317727
0.04505843669 -0.1003156006 0.0004436160290214402 -0.00012266571506624061
0.05037989467 -0.1003156006 0.00046724035402764656 -0.00013673265369200523
0.05570135266 -0.1003156006 0.0004925588815114011 -0.00015142751525006517
0.06102281436 -0.1003156006 0.0005198116927784332 -0.00016623243293044292
0.06634426862 -0.1003156006 0.0005421496345557205 -0.00018053934233715742
0.0716657266 -0.1003156006 0.0005648527898528479 -0.00019448296855309154
0.07698718458 -0.1003156006 0.0005908235221211195 -0.00018314493249125215
0.08230864257 -0.1003156006 0.000618264859614917 -0.000169809142729748
0.08763010055 -0.1003156006 0.0006456003459515253 -0.00015577301520779404
0.09295155853 -0.1003156006 0.000671246069394218 -0.00014245150469551244
0.09827301651 -0.1003156006 0.0006981815290271259 -0.0001296194552738868
0.1035944745 -0.1003156006 0.0007075779324608589 -0.00011496701138883212
0.1089159325 -0.1003156006 0.0006906913860957259 -9.756693483579008e-05
0.1142373979 -0.1003156006 0.0006734251094735637 -8.007783428326107e-05
0.1195588559 -0.1003156006 0.0006573547851439567 -6.498044045090165e-05
0.1248803139 -0.1003156006 0.0006398099294351632 -4.893907852311098e-05
0.1302017719 -0.1003156006 0.0006237302999405014 -3.24555228047655e-05
0.1355232298 -0.1003156006 0.0005981569065598161 -3.5190945655576964e-05
0.1408446878 -0.1003156006 0.0005705631465345758 -5.2347816462590406e-05
0.1461661458 -0.1003156006 0.0005453595536964883 -7.017999966647096e-05
0.1514876038 -0.1003156006 0.000517361982242581 -8.811005824869005e-05
0.1568090618 -0.1003156006 0.0004916038969448756 -0.00010593659443897665
0.1621305197 -0.1003156006 0.0004653318335868919 -0.00012386453627008284
0.1674519777 -0.1003156006 0.0004698882970060213 -0.00015115170297126557
0.1727734357 -0.1003156006 0.0004815026316941602 -0.0001836314923487845
0.1780948937 -0.1003156006 0.0004953136709424901 -0.000216005097253468
0.1834163517 -0.1003156006 0.0005092881702208858 -0.0002483632850903337
0.1887378097 -0.1003156006 0.0005219066920120172 -0.0002798132191786464
0.1940592676 -0.1003156006 0.0005336297869598329 -0.0003094043862323898
0.1993807256 -0.1003156006 0.000551779201927982 -0.0003088752462584285
0.2047021836 -0.1003156006 0.0005731961841358007 -0.00029850493268929375
0.2100236416 -0.1003156006 0.0005932055269968223 -0.0002882994420220861
0.2153450996 -0.1003156006 0.0006128611560748409 -0.00028033543035802715
0.2206665576 -0.1003156006 0.0006324842611865795 -0.0002714959155178809
0.2259880155 -0.1003156006 0.0006507039608530449 -0.0002626392875795649
0.2313094735 -0.1003156006 0.0006546437039503908 -0.00023897375444307801
0.2366309315 -0.1003156006 0.0006498549523948579 -0.00021333470404776475
0.2419523895 -0.1003156006 0.0006436372727963968 -0.0001886457192916116
0.2472738475 -0.1003156006 0.0006382157170747878 -0.00016407346979830783
0.2525953054 -0.1003156006 0.0006371181537163625 -0.0001396134197354343
0.2579167783 -0.1003156006 0.0006362210331729796 -0.00011794337862807252
0.2632382214 -0.1003156006 0.0006091666888853931 -0.00012367369888645764
0.2685596943 -0.1003156006 0.0005763150007624001 -0.000135561589321332
0.2738811374 -0.1003156006 0.0005463072832514731 -0.00014765290691184658
0.2792026103 -0.1003156006 0.0005131767853585184 -0.00015969940031344287
0.2845240533 -0.1003156006 0.00047989006948841715 -0.0001715050986478576
0.2898455262 -0.1003156006 0.0004478994595100786 -0.00018318059634413436
0.2951669693 -0.1003156006 0.00043317082325706585 -0.00021285026449529583
0.3004884422 -0.1003156006 0.0004178875222492994 -0.00024476110700041913
0.3058098853 -0.1003156006 0.00040308762132778024 -0.000272530829570041
0.3111313581 -0.1003156006 0.00038905097668468197 -0.0003001972301646856
0.3164528012 -0.1003156006 0.00037211709544008703 -0.00032797347868213463
0.3217742741 -0.1003156006 0.0003575650381523743 -0.0003553958808309245
0.3270957172 -0.1003156006 0.0003786119675238132 -0.0003694040711109237
0.3324171901 -0.1003156006 0.0003984095297681774 -0.0003835699396974472
0.3377386332 -0.1003156006 0.0004159694623072938 -0.0003976812589782009
0.343060106 -0.1003156006 0.0004364897941966804 -0.0004119252309549717
0.3483815491 -0.1003156006 0.0004506519983844592 -0.00042359307739624707
0.353703022 -0.1003156006 0.0004653172528834475 -0.00042344594607335653
0.3590244651 -0.1003156006 0.0004806889117164804 -0.00039609701088622127
0.364345938 -0.1003156006 0.000494432381084546 -0.00036860452624963645
0.369667381 -0.1003156006 0.000504934896135668 -0.0003447540715440279
0.3749888539 -0.1003156006 0.0005138581187175801 -0.00031998565969350583
0.380310297 -0.1003156006 0.0005245720014552989 -0.00029498261922616617
0.3856317699 -0.1003156006 0.0004970242017674663 -0.0002542578758510302
0.390953213 -0.1003156006 0.0004563402776735776 -0.0002156738633309194
0.3962746859 -0.1003156006 0.0004186616130518311 -0.00017806775865985907
0.4015961289 -0.1003156006 0.0003790983394675482 -0.00013988758170018772
0.4069176018 -0.1003156006 0.0003443521004066769 -0.00010113358545235235
0.4122390449 -0.1003156006 0.00029715877662231464 -8.497850229987473e-05
0.4175605178 -0.1003156006 0.00022412709103913396 -9.34789093121687e-05
0.4228819609 -0.1003156006 0.00014749024557727465 -0.00010177213050379016
0.4282034338 -0.1003156006 7.164048568618117e-05 -0.00011013133282644261
0.4335248768 -0.1003156006 4.723947043449479e-06 -0.00011903746016000391
0.4388463497 -0.1003156006 -5.5674400439840144e-05 -0.0001405948374334968
0.4441677928 -0.1003156006 -9.807099892551799e-05 -0.00019598457994539004
0.4494892657 -0.1003156006 -0.00013816811486845975 -0.0002502038901677453
0.4548107088 -0.1003156006 -0.00017874562680058595 -0.00029941332300830175
0.4601321816 -0.1003156006 -0.00021809104057219782 -0.0003520216403787543
0.4654536247 -0.1003156006 -0.0002405131799719805 -0.00040160227807417456
0.4707750976 -0.1003156006 -0.0002369029765204257 -0.0004454677127089056
0.4760965407 -0.1003156006 -0.00023330424947065942 -0.0004867155630931575
0.4814180136 -0.1003156006 -0.00023314163333913314 -0.0005279148360959247
0.4867394567 -0.1003156006 -0.00023007959209827392 -0.0005692518260047915
0.4920609295 -0.1003156006 -0.00022256266814270876 -0.0005878196953777205
0.4973823726 -0.1003156006 -0.00021556140584526933 -0.0005999942566215574
0.5027038455 -0.1003156006 -0.00020522552303691926 -0.0006120820092359433
0.5080252886 -0.1003156006 -0.00019612429537748337 -0.0006240719340187817
0.5133467317 -0.1003156006 -0.0001971790957487714 -0.000630442044670027
0.5186682343 -0.1003156006 -0.00020335534958228752 -0.0006269672452737649
0.5239896774 -0.1003156006 -0.00020982976888530403 -0.0006232255506944492
0.5293111205 -0.1003156006 -0.0002159347554045942 -0.0006201034931472108
0.5346325636 -0.1003156006 -0.00023077113729335524 -0.0006199319988674419
0.5399540663 -0.1003156006 -0.00025323594559567716 -0.0006189772733098225
0.5452755094 -0.1003156006 -0.00027858302571003143 -0.000617295037964312
0.5505969524 -0.1003156006 -0.000300737017089994 -0.0006171403732664469
0.5559183955 -0.1003156006 -0.00032822951456763354 -0.0006225195741491438
0.5612398982 -0.1003156006 -0.00035575329912584 -0.0006279122407464598
0.5665613413 -0.1003156006 -0.0003843071853030163 -0.0006335130474587255
0.5718827844 -0.1003156006 -0.0004124459048431041 -0.0006411574271816392
0.5772042274 -0.1003156006 -0.0004413513421775236 -0.0006513078398182847
0.5825257301 -0.1003156006 -0.00047192017861303665 -0.0006613944484167783
0.5878471732 -0.1003156006 -0.0005011142195117894 -0.0006722962944883433
0.5931686163 -0.1003156006 -0.0005285072890403371 -0.0006843278501865857
0.5984900594 -0.1003156006 -0.0005534236341678934 -0.0006961275421571974
0.6038115621 -0.1003156006 -0.0005822649297654618 -0.0007078713434162498
0.6091330051 -0.1003156006 -0.0006090430899216233 -0.0007196283168815509
0.6144544482 -0.1003156006 -0.0006346077735105154 -0.0007292925492810891
0.6197758913 -0.1003156006 -0.0006578920860017531 -0.0007374863564945024
0.625097394 -0.1003156006 -0.0006834036547106729 -0.0007429667818867592
0.6304188371 -0.1003156006 -0.0007114388165486335 -0.000743646639873266
0.6357402802 -0.1003156006 -0.0007436148369225259 -0.0007441431222039246
0.6410617828 -0.1003156006 -0.0007752575264034739 -0.0007404765951480628
0.6463832259 -0.1003156006 -0.0008115117462329987 -0.0007348738901197976
0.651704669 -0.1003156006 -0.0008450909133931292 -0.0007277186961254677
0.6570261121 -0.1003156006 -0.0008925906068735247 -0.0007206161316911164
0.6623476148 -0.1003156006 -0.0009396012043840382 -0.0007116959169267897
0.6676690578 -0.1003156006 -0.0009939741510640125 -0.0007034135766591833
0.6729905009 -0.1003156006 -0.0010507432813050789 -0.0006953866553879369
0.678311944 -0.1003156006 -0.0011145066512616006 -0.0006902143577242053
0.6836334467 -0.1003156006 -0.0011806143194073018 -0.0006862759192462403
0.6889548898 -0.1003156006 -0.0012543741894203608 -0.0006841911803886262
0.6942763329 -0.1003156006 -0.0013332508723871296 -0.0006839691913975975
0.6995977759 -0.1003156006 -0.0014159022500742928 -0.0006878009726350696
0.7049192786 -0.1003156006 -0.001498127617750402 -0.0006966293339437622
0.7102407217 -0.1003156006 -0.0015880854744548432 -0.0007054358069433138
0.7155621648 -0.1003156006 -0.0016764980407769563 -0.0007208926513728251
0.7208836079 -0.1003156006 -0.0017686945122867962 -0.0007395522819594253
0.7262051105 -0.1003156006 -0.0018626002478508673 -0.0007596353971242049
0.7315265536 -0.1003156006 -0.0019584371955272146 -0.0007838254255290069
0.7368479967 -0.1003156006 -0.0020518191184755517 -0.0008116693596410045
0.7421694398 -0.1003156006 -0.0021493213770873406 -0.0008424610604826194
0.7474909425 -0.1003156006 -0.0022427463817505412 -0.0008764980370567817
0.7528123856 -0.1003156006 -0.0023446009732248844 -0.0009089343246335706
0.7581338286 -0.1003156006 -0.002444112708051562 -0.000945450925685293
-0.3008363545 -0.09699654579 -0.000125328038148566 0.000779011117786536
-0.2955148816 -0.09699654579 -0.00018458226924914327 0.0008340878960537229
-0.2901934385 -0.09699654579 -0.0002084093122230734 0.0008678180468471565
-0.2848719656 -0.09699654579 -8.73012835716173e-05 0.0008850559685282064
-0.2795505226 -0.09699654579 7.067393539556247e-05 0.0009152355430207654
-0.2742290497 -0.09699654579 0.00023302340893380623 0.0009733066231185613
-0.2689076066 -0.09699654579 0.00038520477096787715 0.0010778532530508354
-0.2635861337 -0.09699654579 0.0004949877746836236 0.0011302762025396126
-0.2582646906 -0.09699654579 0.0005233050731017694 0.0010691741629645646
-0.2529432178 -0.09699654579 0.0006101034489340325 0.0009814257599376466
-0.2476217598 -0.09699654579 0.000745875489638836 0.0009207019284418802
-0.2423003018 -0.09699654579 0.0007495805470885287 0.0009192888803973774
-0.2369788438 -0.09699654579 0.0004177676920056357 0.0010585543412114774
-0.2316573858 -0.09699654579 2.181238216161621e-05 0.00121575065299116
-0.2263359278 -0.09699654579 -0.0004839013148696176 0.0012607866142108658
-0.2210144699 -0.09699654579 -0.00046495228526788915 0.0011417851416988735
-0.2156930119 -0.09699654579 -0.0002955569233041647 0.001025854065036305
-0.2103715539 -0.09699654579 -0.00015063281608266015 0.000912357853907602
-0.2050500959 -0.09699654579 -0.00022216422804083072 0.0008123574537891266
-0.1997286379 -0.09699654579 -0.0003198566499411656 0.0006587627521658228
-0.19440718 -0.09699654579 -0.0004080921514619826 0.0004899866507441656
-0.189085722 -0.09699654579 -0.0004494421648072147 0.00036143119419778866
-0.183764264 -0.09699654579 -0.00048382272861154714 0.00025696504375747063
-0.178442806 -0.09699654579 -0.0005197842494307055 0.0001593196227496167
-0.173121348 -0.09699654579 -0.0004620247132062035 9.665849565843481e-05
-0.16779989 -0.09699654579 -0.00036550051985760943 4.7307294446521106e-05
-0.1624784321 -0.09699654579 -0.00025687518253491405 -2.475386721170927e-05
-0.1571569741 -0.09699654579 -0.00016689781173106976 -8.130935932890741e-05
-0.1518355161 -0.09699654579 -7.758205481062735e-05 -0.00015260072506483654
-0.1465140581 -0.09699654579 1.2354408935812847e-05 -0.00021073730312574216
-0.1411926001 -0.09699654579 8.232723924623342e-05 -0.00024740543086666897
-0.1358711421 -0.09699654579 0.00010715123982638711 -0.00022613508545265532
-0.1305496842 -0.09699654579 0.00013067835041865935 -0.00019881922826105243
-0.1252282262 -0.09699654579 0.0001651492724231297 -0.00017270551596469368
-0.1199067682 -0.09699654579 0.00018229886791854306 -0.00014308479791241052
-0.1145853102 -0.09699654579 0.00019661427983555692 -0.00011240445405612232
-0.1092638522 -0.09699654579 0.00020916509346822503 -8.511137608213035e-05
-0.1039423943 -0.09699654579 0.0002233395753366343 -6.631723516998827e-05
-0.09862093627 -0.09699654579 0.00025924703206413915 -8.462971713373225e-05
-0.09329947084 -0.09699654579 0.0002940268182094143 -0.00010069709242692942
-0.08797801286 -0.09699654579 0.0003306994948570386 -0.00011447665981642308
-0.08265655488 -0.09699654579 0.00036486438744500507 -0.00012933389350514135
-0.0773350969 -0.09699654579 0.00036534608262362616 -0.00012204113348903658
-0.07201363891 -0.09699654579 0.0003657343211159701 -0.00011278190305141064
-0.06669218093 -0.09699654579 0.0003679655651287618 -0.00010338246791770776
-0.06137072667 -0.09699654579 0.0003788211206064395 -9.377095614485947e-05
-0.05604926869 -0.09699654579 0.00039264297314593966 -8.793035635376298e-05
-0.05072781071 -0.09699654579 0.0004080276065148431 -8.087624539565488e-05
-0.045406349 -0.09699654579 0.00042434875362813983 -7.384011802488808e-05
-0.04008489102 -0.09699654579 0.00044140164306555167 -6.866530698010198e-05
-0.03476343304 -0.09699654579 0.00045899028576367986 -6.466120329962454e-05
-0.02944197692 -0.09699654579 0.00048288927306006313 -5.954152295760688e-05
-0.02412051894 -0.09699654579 0.000505955823763458 -5.471661220076945e-05
-0.01879905909 -0.09699654579 0.0005285241850415594 -4.96297511427839e-05
-0.01347760204 -0.09699654579 0.0005527220053476404 -4.394733470805524e-05
-0.00815614406 -0.09699654579 0.0005557220508838847 -3.9424482653878535e-05
-0.00283468538 -0.09699654579 0.000543405280720512 -3.57677670043291e-05
0.002486772602 -0.09699654579 0.0005343668373441277 -3.153968323754097e-05
0.007808230817 -0.09699654579 0.0005217449517720838 -2.7146142486610405e-05
0.0131296888 -0.09699654579 0.00051170046837291 -2.323055654029497e-05
0.01845114678 -0.09699654579 0.0005070923423304457 -3.320673821792272e-05
0.02377260476 -0.09699654579 0.0005045752752480397 -5.340086360084542e-05
0.02909406275 -0.09699654579 0.000500356856990504 -7.477377493099073e-05
0.03441552073 -0.09699654579 0.0004983908652086796 -9.637973814914395e-05
0.03973697871 -0.09699654579 0.0004967485932115109 -0.00011659524442407312
0.04505843669 -0.09699654579 0.0005040815164181488 -0.00013529201597637917
0.05037989467 -0.09699654579 0.0005314314144620035 -0.00015085348064991863
0.05570135266 -0.09699654579 0.0005575232219198049 -0.00016662576760053408
0.06102281436 -0.09699654579 0.0005830901100403516 -0.00018286927375880634
0.06634426862 -0.09699654579 0.0006085021795110808 -0.0001982965091203497
0.0716657266 -0.09699654579 0.0006352714955055166 -0.00021377127981727633
0.07698718458 -0.09699654579 0.0006641118468501279 -0.00019884243296386774
0.08230864257 -0.09699654579 0.0006918692649104634 -0.00018223097799755335
0.08763010055 -0.09699654579 0.0007218872289558927 -0.00016623735883708316
0.09295155853 -0.09699654579 0.0007506086771119623 -0.00015034066143890308
0.09827301651 -0.09699654579 0.0007797314706241891 -0.00013428463620006082
0.1035944745 -0.09699654579 0.0007920526588255708 -0.00011559231572688737
0.1089159325 -0.09699654579 0.0007706478942481164 -9.280944926070347e-05
0.1142373979 -0.09699654579 0.0007531787838111807 -7.194904550883615e-05
0.1195588559 -0.09699654579 0.0007337855822211705 -5.287733956314221e-05
0.1248803139 -0.09699654579 0.000717519088750435 -3.381169174622387e-05
0.1302017719 -0.09699654579 0.0007001551620855192 -1.3082746627341183e-05
0.1355232298 -0.09699654579 0.000670064804923342 -1.4801918057876585e-05
0.1408446878 -0.09699654579 0.0006413885715797494 -3.137990287137333e-05
0.1461661458 -0.09699654579 0.000612826960722662 -4.7963852234920074e-05
0.1514876038 -0.09699654579 0.0005806918264050589 -6.464177992816798e-05
0.1568090618 -0.09699654579 0.0005489725750477829 -8.133527255042203e-05
0.1621305197 -0.09699654579 0.0005205775461651582 -9.816483024250456e-05
0.1674519777 -0.09699654579 0.0005198273217750813 -0.00013055041861889346
0.1727734357 -0.09699654579 0.0005302220671943458 -0.00016812192290363117
0.1780948937 -0.09699654579 0.0005382893314441962 -0.0002070246801490781
0.1834163517 -0.09699654579 0.0005492736020934637 -0.00024537950144488946
0.1887378097 -0.09699654579 0.0005583946752795404 -0.00028111962340229775
0.1940592676 -0.09699654579 0.0005694006516506406 -0.0003169091063594813
0.1993807256 -0.09699654579 0.0005890357439966814 -0.00031749289072442835
0.2047021836 -0.09699654579 0.000611817880841423 -0.00030836906617612503
0.2100236416 -0.09699654579 0.0006309001629702644 -0.0002980141020004787
0.2153450996 -0.09699654579 0.0006511281536790777 -0.00028729128911029084
0.2206665576 -0.09699654579 0.0006725134933132011 -0.0002764582983546921
0.2259880155 -0.09699654579 0.0006926878098187691 -0.00026582114098479547
0.2313094735 -0.09699654579 0.0006963050218783712 -0.00023997210816559413
0.2366309315 -0.09699654579 0.0006931518747051642 -0.00021083719550532717
0.2419523895 -0.09699654579 0.0006911372409401772 -0.00018163146619052495
0.2472738475 -0.09699654579 0.0006880429814366223 -0.0001525448121259584
0.2525953054 -0.09699654579 0.0006849319651558997 -0.0001249589175510584
0.2579167783 -0.09699654579 0.0006814862806211212 -9.897219831339157e-05
0.2632382214 -0.09699654579 0.0006516258359105648 -0.00010462836234074053
0.2685596943 -0.09699654579 0.0006128868777946723 -0.00011678669026097044
0.2738811374 -0.09699654579 0.0005779546467744999 -0.0001282947048598305
0.2792026103 -0.09699654579 0.000543345176436165 -0.00013893427617242456
0.2845240533 -0.09699654579 0.0005070032822806784 -0.0001497359204413348
0.2898455262 -0.09699654579 0.0004728718313663737 -0.0001609962825520747
0.2951669693 -0.09699654579 0.0004566516056617519 -0.00019339753007792228
0.3004884422 -0.09699654579 0.0004419861851330387 -0.0002257526891734721
0.3058098853 -0.09699654579 0.00043001741694809507 -0.00025983790215894343
0.3111313581 -0.09699654579 0.00041774758971391057 -0.0002938775381379339
0.3164528012 -0.09699654579 0.00040321002319867593 -0.0003265151301020531
0.3217742741 -0.09699654579 0.0003913807331589431 -0.0003552897899146317
0.3270957172 -0.09699654579 0.00041404463541276735 -0.0003725880966184421
0.3324171901 -0.09699654579 0.00043776015386557874 -0.000389883289930041
0.3377386332 -0.09699654579 0.000456327513127546 -0.00040588409140673794
0.343060106 -0.09699654579 0.00047626705894385316 -0.00042073326756817217
0.3483815491 -0.09699654579 0.0004949890093883664 -0.00043601263139737796
0.353703022 -0.09699654579 0.0005136216370242534 -0.00043445630593637704
0.3590244651 -0.09699654579 0.0005318652354125671 -0.00040165631358039794
0.364345938 -0.09699654579 0.0005448169049300491 -0.0003719840589246881
0.369667381 -0.09699654579 0.0005594224483232735 -0.0003424457888932864
0.3749888539 -0.09699654579 0.0005757497100978506 -0.0003128126719864627
0.380310297 -0.09699654579 0.0005889729654311098 -0.00028533857675853974
0.3856317699 -0.09699654579 0.0005618515946402652 -0.00024379636319397002
0.390953213 -0.09699654579 0.0005197826996134881 -0.00019618612511050303
0.3962746859 -0.09699654579 0.0004780863148440278 -0.00014592162097751607
0.4015961289 -0.09699654579 0.0004387829807094329 -0.00010069162585716778
0.4069176018 -0.09699654579 0.0003988705661031033 -5.909639431723019e-05
0.4122390449 -0.09699654579 0.00033775219121241485 -4.004708897726372e-05
0.4175605178 -0.09699654579 0.00025159220115252825 -5.033494452023271e-05
0.4228819609 -0.09699654579 0.00016752387631851636 -6.04009766546762e-05
0.4282034338 -0.09699654579 8.72026466929895e-05 -7.01998370039978e-05
0.4335248768 -0.09699654579 8.883374753109717e-06 -7.986914897144732e-05
0.4388463497 -0.09699654579 -6.492755888083987e-05 -0.00010719616430063479
0.4441677928 -0.09699654579 -0.0001130538889188072 -0.00016740562829546408
0.4494892657 -0.09699654579 -0.00015815839944385694 -0.0002270887644159797
0.4548107088 -0.09699654579 -0.00020346708779403415 -0.00028624349012792467
0.4601321816 -0.09699654579 -0.00024343940646031647 -0.00034423714526161925
0.4654536247 -0.09699654579 -0.0002671218306466462 -0.0003937771333345132
0.4707750976 -0.09699654579 -0.0002596169965202171 -0.0004395464038208593
0.4760965407 -0.09699654579 -0.0002512253500801102 -0.00048753650475492986
0.4814180136 -0.09699654579 -0.0002440800068872175 -0.000533502344458848
0.4867394567 -0.09699654579 -0.00023888584336694148 -0.0005772436696752655
0.4920609295 -0.09699654579 -0.0002265290339650914 -0.0005940876450768728
0.4973823726 -0.09699654579 -0.00021216972893009367 -0.000603478534031073
0.5027038455 -0.09699654579 -0.00020206096874112958 -0.0006143459251530105
0.5080252886 -0.09699654579 -0.00019037571436953462 -0.0006247577721926431
0.5133467317 -0.09699654579 -0.00018750101585444286 -0.0006272034767987329
0.5186682343 -0.09699654579 -0.0001959597721987708 -0.000620923061027921
0.5239896774 -0.09699654579 -0.00020359144786436857 -0.0006172872248145602
0.5293111205 -0.09699654579 -0.00021128638074973866 -0.0006123845010506843
0.5346325636 -0.09699654579 -0.0002294265301474277 -0.0006073593503895248
0.5399540663 -0.09699654579 -0.0002539259960762228 -0.0006048527607253258
0.5452755094 -0.09699654579 -0.0002790911369392096 -0.0006032244243791897
0.5505969524 -0.09699654579 -0.00030248729458432714 -0.0006009822562703807
0.5559183955 -0.09699654579 -0.0003321264843154807 -0.0006039407915893454
0.5612398982 -0.09699654579 -0.0003600949189516181 -0.0006092327080865545
0.5665613413 -0.09699654579 -0.0003902227199232043 -0.0006146502552375556
0.5718827844 -0.09699654579 -0.00042162385946938513 -0.0006221467864550536
0.5772042274 -0.09699654579 -0.00044977598504841455 -0.0006323885108287197
0.5825257301 -0.09699654579 -0.00048253285208080384 -0.0006425364593228283
0.5878471732 -0.09699654579 -0.0005109798292707857 -0.0006538846570302337
0.5931686163 -0.09699654579 -0.0005382694166986645 -0.0006661278372241432
0.5984900594 -0.09699654579 -0.0005671714216948418 -0.0006784127641245329
0.6038115621 -0.09699654579 -0.0005939214364021099 -0.000690079456706482
0.6091330051 -0.09699654579 -0.0006207726995217508 -0.0007025773246351466
0.6144544482 -0.09699654579 -0.0006482043624405014 -0.0007129441593981136
0.6197758913 -0.09699654579 -0.0006707418436234912 -0.0007205432187847039
0.625097394 -0.09699654579 -0.0006933568299137884 -0.0007268809370591539
0.6304188371 -0.09699654579 -0.0007192101666453374 -0.0007264743842761939
0.6357402802 -0.09699654579 -0.0007454450807381105 -0.000724587905068273
0.6410617828 -0.09699654579 -0.0007759407039445982 -0.0007211937466483099
0.6463832259 -0.09699654579 -0.0008088832579218432 -0.0007129958837448297
0.651704669 -0.09699654579 -0.00084729721484376 -0.0007035535081895401
0.6570261121 -0.09699654579 -0.0008902121666314415 -0.0006925931936571604
0.6623476148 -0.09699654579 -0.0009395855896264376 -0.0006818161937102346
0.6676690578 -0.09699654579 -0.000993555930727684 -0.000666986683935743
0.6729905009 -0.09699654579 -0.0010508354105207768 -0.0006564184087070858
0.678311944 -0.09699654579 -0.0011145466024937165 -0.0006460433643362466
0.6836334467 -0.09699654579 -0.0011801980080723591 -0.0006382478800463757
0.6889548898 -0.09699654579 -0.001255829189793161 -0.0006350888771303105
0.6942763329 -0.09699654579 -0.0013370992938911935 -0.0006326106109766296
0.6995977759 -0.09699654579 -0.0014219574549290924 -0.0006332526251774053
0.7049192786 -0.09699654579 -0.0015088364436320679 -0.0006397244307913548
0.7102407217 -0.09699654579 -0.0016015367822278508 -0.0006487229488109951
0.7155621648 -0.09699654579 -0.0016929125873836803 -0.000663098493895514
0.7208836079 -0.09699654579 -0.0017868151123830547 -0.0006795966413436651
0.7262051105 -0.09699654579 -0.001884405599507591 -0.0007007793024361615
0.7315265536 -0.09699654579 -0.0019762366895178314 -0.0007273468440618766
0.7368479967 -0.09699654579 -0.0020738517735719025 -0.0007526826709789931
0.7421694398 -0.09699654579 -0.002171480612966533 -0.0007819510575158515
0.7474909425 -0.09699654579 -0.002267174601450597 -0.0008123023420554697
0.7528123856 -0.09699654579 -0.0023657911417686926 -0.0008441725682607547
0.7581338286 -0.09699654579 -0.0024693017916192456 -0.0008826452051987187
-0.3008363545 -0.09367749095 -8.271395381221024e-05 0.0007233092420563556
-0.2955148816 -0.09367749095 -0.00014086303343750677 0.0007765559636911601
-0.2901934385 -0.09367749095 -0.00028450168171645325 0.0008369238467638346
-0.2848719656 -0.09367749095 -0.00019879024450597985 0.0008634278382956997
-0.2795505226 -0.09367749095 -4.136963024141206e-05 0.000896417994925104
-0.2742290497 -0.09367749095 0.00012468297271237455 0.0009623678349205353
-0.2689076066 -0.09367749095 0.00028072710235218476 0.0010508296914816663