VARIABLES = X,Y,phix,phiy
ZONE I=200,J=200,F=POINT 
-0.3008363545 -0.1003156006 -0.0005594834968328632 -1.8069739469961947e-05
-0.2955148816 -0.1003156006 -0.000550259182836598 -3.287924088197681e-05
-0.2901934385 -0.1003156006 -0.0006311472177100494 -5.000510921592673e-05
-0.2848719656 -0.1003156006 -0.0007291972854617926 -6.668976130121032e-05
-0.2795505226 -0.1003156006 -0.0008613745764308844 -6.70315478407041e-05
-0.2742290497 -0.1003156006 -0.0010418930315725548 -7.52488941858395e-05
-0.2689076066 -0.1003156006 -0.0012387016273340695 -8.895467811255573e-05
-0.2635861337 -0.1003156006 -0.001215825769593215 -7.553444495889896e-05
-0.2582646906 -0.1003156006 -0.0011690835500439737 -8.183523109532223e-05
-0.2529432178 -0.1003156006 -0.0011278290065558617 -7.607138870876408e-05
-0.2476217598 -0.1003156006 -0.0010979675820548434 -1.6205973158964337e-05
-0.2423003018 -0.1003156006 -0.0010235836435481468 5.6409495910902236e-05
-0.2369788438 -0.1003156006 -0.0008722228091140931 5.931131464224638e-05
-0.2316573858 -0.1003156006 -0.000697652945914526 2.1034564689456694e-06
-0.2263359278 -0.1003156006 -0.0005272055868249909 -6.362875067239997e-05
-0.2210144699 -0.1003156006 -0.0006707452574672723 2.5152389112847614e-05
-0.2156930119 -0.1003156006 -0.000830120190932061 0.0001258472294028125
-0.2103715539 -0.1003156006 -0.0010087017156133788 0.0002219288210499965
-0.2050500959 -0.1003156006 -0.000978621967716338 0.0002656823494359032
-0.1997286379 -0.1003156006 -0.0009379982784456171 0.0003395193976378513
-0.19440718 -0.1003156006 -0.0008819596558947825 0.0004423350657298417
-0.189085722 -0.1003156006 -0.0009677494110835607 0.0005161504548999532
-0.183764264 -0.1003156006 -0.001064335254828512 0.0005464794330883496
-0.178442806 -0.1003156006 -0.0011654155431692656 0.0005659449454372017
-0.173121348 -0.1003156006 -0.0012691037946639967 0.0005561044296446653
-0.16779989 -0.1003156006 -0.001365831664832175 0.0005396199130285239
-0.1624784321 -0.1003156006 -0.0014852183661371123 0.0005417023236648183
-0.1571569741 -0.1003156006 -0.0015681921397607225 0.0005289466526669707
-0.1518355161 -0.1003156006 -0.001636220876392469 0.0005001158033727139
-0.1465140581 -0.1003156006 -0.001704637118001576 0.00047012230315129027
-0.1411926001 -0.1003156006 -0.0017561448930678034 0.0004341365278546828
-0.1358711421 -0.1003156006 -0.0017711301937766316 0.0003847963708549206
-0.1305496842 -0.1003156006 -0.0017871335291051384 0.0003355590021083424
-0.1252282262 -0.1003156006 -0.0017950267858945108 0.00028352401537922736
-0.1199067682 -0.1003156006 -0.001780652955358141 0.0002362011213311514
-0.1145853102 -0.1003156006 -0.0017593967504999247 0.00018836418636367265
-0.1092638522 -0.1003156006 -0.0017339546036831731 0.0001385150918364678
-0.1039423943 -0.1003156006 -0.0017087336141105133 9.25112194623225e-05
-0.09862093627 -0.1003156006 -0.001694885684135362 7.342344884224997e-05
-0.09329947084 -0.1003156006 -0.001676970413652715 5.590352603250257e-05
-0.08797801286 -0.1003156006 -0.0016587173534704579 3.838931530008782e-05
-0.08265655488 -0.1003156006 -0.0016404189654676143 2.173524672792838e-05
-0.0773350969 -0.1003156006 -0.0016190058714601876 1.0182396929228415e-05
-0.07201363891 -0.1003156006 -0.0015979079089231472 -9.799906719437642e-07
-0.06669218093 -0.1003156006 -0.0015761345538044657 -1.2099295495679992e-05
-0.06137072667 -0.1003156006 -0.0015517358445419809 -2.5013033766391287e-05
-0.05604926869 -0.1003156006 -0.001517951803415536 -4.621169791305607e-05
-0.05072781071 -0.1003156006 -0.00148265603957452 -6.978715336512351e-05
-0.045406349 -0.1003156006 -0.0014462509142440917 -9.36179607152752e-05
-0.04008489102 -0.1003156006 -0.0014113764505814428 -0.00011664902213531648
-0.03476343304 -0.1003156006 -0.0013770666401100445 -0.00013720869792281632
-0.02944197692 -0.1003156006 -0.001346317945941625 -0.0001542021952177737
-0.02412051894 -0.1003156006 -0.0013176205426790137 -0.00017150084310800075
-0.01879905909 -0.1003156006 -0.0012869015565226262 -0.00018932317755830717
-0.01347760204 -0.1003156006 -0.0012569906626457943 -0.00020660322597201844
-0.00815614406 -0.1003156006 -0.0012275913291252697 -0.00021465330889077212
-0.00283468538 -0.1003156006 -0.001193100845254649 -0.00021589443044475588
0.002486772602 -0.1003156006 -0.0011563939855607794 -0.00021729784331993353
0.007808230817 -0.1003156006 -0.0011221469887411919 -0.00021866209142476416
0.0131296888 -0.1003156006 -0.0010888034699118585 -0.00021996687564050448
0.01845114678 -0.1003156006 -0.0010641381401113677 -0.00021282691288594164
0.02377260476 -0.1003156006 -0.0010484783589338098 -0.00019901694153134174
0.02909406275 -0.1003156006 -0.001033640458466875 -0.00018392658283145454
0.03441552073 -0.1003156006 -0.0010166591899196178 -0.00016884483636442642
0.03973697871 -0.1003156006 -0.0010006861000171623 -0.00015486341240228258
0.04505843669 -0.1003156006 -0.000994096900274537 -0.00014521691125823455
0.05037989467 -0.1003156006 -0.0010073563542946403 -0.00014422141446869622
0.05570135266 -0.1003156006 -0.001020271293829328 -0.0001428024816525011
0.06102281436 -0.1003156006 -0.0010334867107950208 -0.00014158388023529744
0.06634426862 -0.1003156006 -0.0010441368713835816 -0.0001404806718097005
0.0716657266 -0.1003156006 -0.0010558689245985435 -0.0001395153335654676
0.07698718458 -0.1003156006 -0.0010565949047897643 -0.00015516829973165588
0.08230864257 -0.1003156006 -0.0010532130852905907 -0.00017225617357710045
0.08763010055 -0.1003156006 -0.0010524450724669406 -0.0001898696956953418
0.09295155853 -0.1003156006 -0.0010505530519824154 -0.00020682254458006275
0.09827301651 -0.1003156006 -0.0010478715617528132 -0.0002234424762627566
0.1035944745 -0.1003156006 -0.0010415148944531766 -0.00023295971245039014
0.1089159325 -0.1003156006 -0.0010210791555317778 -0.00022714942999725767
0.1142373979 -0.1003156006 -0.001004149111425131 -0.0002213784135397005
0.1195588559 -0.1003156006 -0.0009851376496977308 -0.00021581795592193475
0.1248803139 -0.1003156006 -0.000967010203175392 -0.00021018778553834954
0.1302017719 -0.1003156006 -0.0009472191123448971 -0.00020455065859158135
0.1355232298 -0.1003156006 -0.0009404656797257081 -0.00019146455422474804
0.1408446878 -0.1003156006 -0.0009434730477489631 -0.00017414191910647262
0.1461661458 -0.1003156006 -0.0009457811925271801 -0.0001604743572595611
0.1514876038 -0.1003156006 -0.0009472079137631114 -0.00014675047566175352
0.1568090618 -0.1003156006 -0.0009495259659790317 -0.0001329969836168214
0.1621305197 -0.1003156006 -0.0009500552394639168 -0.00011913595356640118
0.1674519777 -0.1003156006 -0.0009680192164213311 -0.00011856356181312985
0.1727734357 -0.1003156006 -0.0009956673891708269 -0.00012500224857593084
0.1780948937 -0.1003156006 -0.0010212334941691972 -0.00013139023720526837
0.1834163517 -0.1003156006 -0.0010484105228378297 -0.00013780900389593796
0.1887378097 -0.1003156006 -0.0010723283453648528 -0.00014339521562648666
0.1940592676 -0.1003156006 -0.0010940347138207805 -0.00014782909207764372
0.1993807256 -0.1003156006 -0.001088244665868481 -0.00016452267439739558
0.2047021836 -0.1003156006 -0.0010676161888511374 -0.0001854042795398213
0.2100236416 -0.1003156006 -0.0010489345549900898 -0.00020612048942324058
0.2153450996 -0.1003156006 -0.0010324398515539409 -0.0002238573862978789
0.2206665576 -0.1003156006 -0.001014493684450131 -0.00024308315272889437
0.2259880155 -0.1003156006 -0.0009966289109020001 -0.0002623018301493825
0.2313094735 -0.1003156006 -0.0009656009804366773 -0.0002498313957363555
0.2366309315 -0.1003156006 -0.0009314590505762358 -0.0002311056026962099
0.2419523895 -0.1003156006 -0.0008982288862714176 -0.00021407986956434584
0.2472738475 -0.1003156006 -0.0008631977049781299 -0.00019697291491224268
0.2525953054 -0.1003156006 -0.0008298008948956406 -0.0001790924933982803
0.2579167783 -0.1003156006 -0.0007963898059863727 -0.00016291801558470615
0.2632382214 -0.1003156006 -0.0008044456580985086 -0.00014764324298918916
0.2685596943 -0.1003156006 -0.0008188758478696411 -0.00013103044139567608
0.2738811374 -0.1003156006 -0.0008371272687556761 -0.0001129440037768564
0.2792026103 -0.1003156006 -0.0008543360463635024 -9.594246086505255e-05
0.2845240533 -0.1003156006 -0.0008663473681158358 -8.293127274850657e-05
0.2898455262 -0.1003156006 -0.0008791263085576382 -6.983745042375082e-05
0.2951669693 -0.1003156006 -0.0008779134449532307 -9.623513435782379e-05
0.3004884422 -0.1003156006 -0.0008775433197660791 -0.00012806458353376376
0.3058098853 -0.1003156006 -0.0008738494306284768 -0.00015496481071975628
0.3111313581 -0.1003156006 -0.0008687025263205278 -0.0001816875078798345
0.3164528012 -0.1003156006 -0.0008647993881188872 -0.00020844055916001487
0.3217742741 -0.1003156006 -0.0008593433931692288 -0.00023522486972102398
0.3270957172 -0.1003156006 -0.0007995581449858751 -0.00023380852144423418
0.3324171901 -0.1003156006 -0.0007409434108925317 -0.00023196850894432225
0.3377386332 -0.1003156006 -0.0006808442887531434 -0.00023033329150252193
0.343060106 -0.1003156006 -0.0006219569806026232 -0.00022883065628366678
0.3483815491 -0.1003156006 -0.0005682559774882925 -0.0002258560429848465
0.353703022 -0.1003156006 -0.0005219846947097196 -0.0002087545549813023
0.3590244651 -0.1003156006 -0.0004920036903480057 -0.00016065465675642752
0.364345938 -0.1003156006 -0.00045989751579432714 -0.00011233480965233568
0.369667381 -0.1003156006 -0.00043286626184734465 -7.008616041864468e-05
0.3749888539 -0.1003156006 -0.0004050304460958726 -2.635122431315357e-05
0.380310297 -0.1003156006 -0.00037695854371423216 1.8051654610963028e-05
0.3856317699 -0.1003156006 -0.0003948257098552597 4.6683334274016704e-05
0.390953213 -0.1003156006 -0.0004206709411136186 6.633425053027398e-05
0.3962746859 -0.1003156006 -0.0004459059868796221 8.513032943145131e-05
0.4015961289 -0.1003156006 -0.0004682513476405081 0.00010460273344924857
0.4069176018 -0.1003156006 -0.0004945661843120296 0.000124558379350856
0.4122390449 -0.1003156006 -0.0005140623910108625 0.00012325510430478707
0.4175605178 -0.1003156006 -0.000532235749507106 9.319522962657552e-05
0.4228819609 -0.1003156006 -0.0005502037289217004 6.0843120587528996e-05
0.4282034338 -0.1003156006 -0.000566225907558586 2.9057304386953136e-05
0.4335248768 -0.1003156006 -0.0005795991262606446 2.7432659631376995e-06
0.4388463497 -0.1003156006 -0.0005805309314785208 -2.551467973725731e-05
0.4441677928 -0.1003156006 -0.0005396283334035244 -5.833263062694522e-05
0.4494892657 -0.1003156006 -0.0004991712399245459 -9.036853762590334e-05
0.4548107088 -0.1003156006 -0.000463040580414826 -0.00011848904521748484
0.4601321816 -0.1003156006 -0.0004238473290804302 -0.00014859605680131165
0.4654536247 -0.1003156006 -0.00037370005403929076 -0.00016414304934026712
0.4707750976 -0.1003156006 -0.0003061630093894285 -0.00015747029487765498
0.4760965407 -0.1003156006 -0.00024731306471220736 -0.00015119750251505298
0.4814180136 -0.1003156006 -0.000185572746949206 -0.00014492436744701048
0.4867394567 -0.1003156006 -0.00012314830773422347 -0.00013866967663962542
0.4920609295 -0.1003156006 -7.239142082403941e-05 -0.00010954563459073651
0.4973823726 -0.1003156006 -2.977507312016218e-05 -7.518078779708383e-05
0.5027038455 -0.1003156006 1.5252720705833533e-05 -4.124858254428353e-05
0.5080252886 -0.1003156006 5.806666516487516e-05 -7.0896795598079484e-06
0.5133467317 -0.1003156006 9.293908359956435e-05 2.540795111150394e-05
0.5186682343 -0.1003156006 0.00011441058558188182 6.143905686956156e-05
0.5239896774 -0.1003156006 0.00013329076502988164 9.697000583311581e-05
0.5293111205 -0.1003156006 0.00015557084021510683 0.00013239021822629405
0.5346325636 -0.1003156006 0.00017328392399042455 0.00016102322951347256
0.5399540663 -0.1003156006 0.00018554350180674463 0.00018456224971120865
0.5452755094 -0.1003156006 0.00019713272787245608 0.00020733823839773656
0.5505969524 -0.1003156006 0.00021054016672374738 0.00023087421158915475
0.5559183955 -0.1003156006 0.00022918009079593956 0.00024760625976055696
0.5612398982 -0.1003156006 0.0002446984694266579 0.00026074646073022466
0.5665613413 -0.1003156006 0.00026090174935976176 0.00027422305696095313
0.5718827844 -0.1003156006 0.00028133914233832594 0.00028759628881641104
0.5772042274 -0.1003156006 0.00030852005290444515 0.0002964118726188037
0.5825257301 -0.1003156006 0.0003351413149792774 0.00030518068804064253
0.5878471732 -0.1003156006 0.00036560646985759346 0.0003152634263477063
0.5931686163 -0.1003156006 0.0004022929395677602 0.00032438813520835704
0.5984900594 -0.1003156006 0.00043635559082320246 0.0003340104608329995
0.6038115621 -0.1003156006 0.0004744127228975635 0.0003443725772789602
0.6091330051 -0.1003156006 0.0005149988453041881 0.0003555220875025044
0.6144544482 -0.1003156006 0.000556522719317608 0.0003663697859804515
0.6197758913 -0.1003156006 0.0006044988841249878 0.00037792895765342437
0.625097394 -0.1003156006 0.0006533432259404418 0.00039144543612907993
0.6304188371 -0.1003156006 0.0007017347751490622 0.00040764914718379353
0.6357402802 -0.1003156006 0.0007553765880358584 0.00042598309593139684
0.6410617828 -0.1003156006 0.0008094078004263109 0.0004448459845644653
0.6463832259 -0.1003156006 0.0008655783552711678 0.0004669924446766109
0.651704669 -0.1003156006 0.0009243197046519924 0.0004900256383105751
0.6570261121 -0.1003156006 0.0009838023779977407 0.0005161055044642668
0.6623476148 -0.1003156006 0.001047302351278788 0.0005434689939003944
0.6676690578 -0.1003156006 0.0011107505348238404 0.0005724907288655156
0.6729905009 -0.1003156006 0.0011761129467338556 0.0006039622004560892
0.678311944 -0.1003156006 0.001240846218968721 0.0006370824203535735
0.6836334467 -0.1003156006 0.00130777170231353 0.0006718670112426548
0.6889548898 -0.1003156006 0.001376766557523536 0.0007129037263110159
0.6942763329 -0.1003156006 0.0014452854054369405 0.0007538748745991515
0.6995977759 -0.1003156006 0.0015157144141558906 0.0007969939732152085
0.7049192786 -0.1003156006 0.0015851430769463512 0.0008433505576419932
0.7102407217 -0.1003156006 0.0016560042229958735 0.0008926291261363507
0.7155621648 -0.1003156006 0.0017272177520889153 0.0009447364882286811
0.7208836079 -0.1003156006 0.0017973435519960503 0.0009990859863015461
0.7262051105 -0.1003156006 0.0018671526416792453 0.0010546285569609682
0.7315265536 -0.1003156006 0.0019365745177935914 0.001113424888257482
0.7368479967 -0.1003156006 0.0020010161680177087 0.0011762735192496056
0.7421694398 -0.1003156006 0.0020660096358405653 0.0012442576017911318
0.7474909425 -0.1003156006 0.0021276476901006787 0.0013144336385739184
0.7528123856 -0.1003156006 0.0021835893321107973 0.001383300477518105
0.7581338286 -0.1003156006 0.0022366971752202504 0.0014534219753813246
-0.3008363545 -0.09699654579 -0.0005084255653055351 4.762129011572329e-06
-0.2955148816 -0.09699654579 -0.0005038337974171618 -8.083262128021614e-06
-0.2901934385 -0.09699654579 -0.0005275414630751287 -3.972259061398813e-05
-0.2848719656 -0.09699654579 -0.000637164554204227 -4.866040558719579e-05
-0.2795505226 -0.09699654579 -0.0007606179795783669 -4.116986442659816e-05
-0.2742290497 -0.09699654579 -0.0009361911763801891 -4.060999260975773e-05
-0.2689076066 -0.09699654579 -0.0011486793174764263 -6.390275126758026e-05
-0.2635861337 -0.09699654579 -0.0012907733400466452 -0.0001037917328274941
-0.2582646906 -0.09699654579 -0.0012557848481600461 -0.00012272858326425537
-0.2529432178 -0.09699654579 -0.0012168397782390415 -7.968187810043271e-05
-0.2476217598 -0.09699654579 -0.0012047781184593514 2.540746924839773e-05
-0.2423003018 -0.09699654579 -0.0011569804816357976 9.905686653422783e-05
-0.2369788438 -0.09699654579 -0.001012905771927981 6.427262297178617e-05
-0.2316573858 -0.09699654579 -0.0008084593648654332 -1.30067751026351e-05
-0.2263359278 -0.09699654579 -0.0005654987247525196 -7.83561673007612e-05
-0.2210144699 -0.09699654579 -0.0006671906851093381 1.1353811249266295e-05
-0.2156930119 -0.09699654579 -0.0008441171623899446 0.00011015330406576352
-0.2103715539 -0.09699654579 -0.0010344143861959543 0.00023887754798842715
-0.2050500959 -0.09699654579 -0.0010489630647482818 0.0003381953201175875
-0.1997286379 -0.09699654579 -0.0009926200249290782 0.0004420862077084934
-0.19440718 -0.09699654579 -0.0009277002595538786 0.0005439472396521998
-0.189085722 -0.09699654579 -0.000989010362876343 0.0005813019312577053
-0.183764264 -0.09699654579 -0.0010974602413234469 0.0005815328787107795
-0.178442806 -0.09699654579 -0.001203045658138889 0.0005581770414020528
-0.173121348 -0.09699654579 -0.0013129584021007608 0.0005513306683612764
-0.16779989 -0.09699654579 -0.0014411882858641027 0.0005651942002564785
-0.1624784321 -0.09699654579 -0.0015700026251965098 0.000589425124477486
-0.1571569741 -0.09699654579 -0.001653508487402732 0.0005629022063588363
-0.1518355161 -0.09699654579 -0.0017142316571372048 0.0005268427854942667
-0.1465140581 -0.09699654579 -0.0017774747663386343 0.0004870795642994745
-0.1411926001 -0.09699654579 -0.0018264418188955504 0.00044574443759633897
-0.1358711421 -0.09699654579 -0.0018319728371299542 0.0003932413638015812
-0.1305496842 -0.09699654579 -0.001833441784279593 0.00033972416526163593
-0.1252282262 -0.09699654579 -0.001828247437491586 0.0002852676295582445
-0.1199067682 -0.09699654579 -0.00179432343034699 0.0002314432097822951
-0.1145853102 -0.09699654579 -0.0017562975380877525 0.00018021405199914318
-0.1092638522 -0.09699654579 -0.0017169941865791535 0.00012913433033738946
-0.1039423943 -0.09699654579 -0.0016745081367351069 8.198442468820617e-05
-0.09862093627 -0.09699654579 -0.001653851668978023 6.578868109525784e-05
-0.09329947084 -0.09699654579 -0.001634340697971966 5.035977536755528e-05
-0.08797801286 -0.09699654579 -0.0016157517689613056 3.5694336613975965e-05
-0.08265655488 -0.09699654579 -0.001595842262341892 2.105575934116541e-05
-0.0773350969 -0.09699654579 -0.0015715116410135888 7.727708583516741e-06
-0.07201363891 -0.09699654579 -0.001545782981927367 -6.446611543850749e-06
-0.06669218093 -0.09699654579 -0.0015215365729346708 -2.101596797220588e-05
-0.06137072667 -0.09699654579 -0.0014972448647176011 -3.8336788663728644e-05
-0.05604926869 -0.09699654579 -0.00146371835716029 -6.011377971821767e-05
-0.05072781071 -0.09699654579 -0.0014272924879028164 -8.41875311143077e-05
-0.045406349 -0.09699654579 -0.0013902681013323343 -0.00010832496840977194
-0.04008489102 -0.09699654579 -0.0013551393130698177 -0.00013161160096974192
-0.03476343304 -0.09699654579 -0.001321702284289816 -0.00015247255731747221
-0.02944197692 -0.09699654579 -0.001292759583814018 -0.00017154815577105325
-0.02412051894 -0.09699654579 -0.0012660317209545228 -0.00019069524660479025
-0.01879905909 -0.09699654579 -0.001237414063868467 -0.00020976268911591275
-0.01347760204 -0.09699654579 -0.0012112423184770737 -0.00022887170654411747
-0.00815614406 -0.09699654579 -0.0011781241256353014 -0.00023751072252327056
-0.00283468538 -0.09699654579 -0.00114305040582103 -0.00023837767217142397
0.002486772602 -0.09699654579 -0.0011064158107020037 -0.0002388219473052936
0.007808230817 -0.09699654579 -0.001070115564480427 -0.000239341279036494
0.0131296888 -0.09699654579 -0.0010342904961953238 -0.00024000432756353707
0.01845114678 -0.09699654579 -0.0010096321467154027 -0.00023022040362239972
0.02377260476 -0.09699654579 -0.0009956938709145425 -0.0002129170401180524
0.02909406275 -0.09699654579 -0.0009809093497301475 -0.000194063384116564
0.03441552073 -0.09699654579 -0.000968812759848434 -0.0001750372745152681
0.03973697871 -0.09699654579 -0.0009527995815612148 -0.00015757229554233816
0.04505843669 -0.09699654579 -0.0009515591702098776 -0.00014524057667169478
0.05037989467 -0.09699654579 -0.0009669585787055434 -0.00014330520993527667
0.05570135266 -0.09699654579 -0.0009824563284705117 -0.00014104051994500417
0.06102281436 -0.09699654579 -0.0009994076554081012 -0.00013854506828262693
0.06634426862 -0.09699654579 -0.0010139588183199738 -0.0001366985888493824
0.0716657266 -0.09699654579 -0.0010285756168332985 -0.0001348650786388111
0.07698718458 -0.09699654579 -0.0010294189029149822 -0.00015321947336297472
0.08230864257 -0.09699654579 -0.0010295214491080741 -0.0001728215156555802
0.08763010055 -0.09699654579 -0.001027984227686915 -0.0001918109650668355
0.09295155853 -0.09699654579 -0.0010261059800872213 -0.00021073031769621627
0.09827301651 -0.09699654579 -0.0010247765478392785 -0.0002299515885867112
0.1035944745 -0.09699654579 -0.001015979922314656 -0.0002402608794083732
0.1089159325 -0.09699654579 -0.000996738672251999 -0.00023319896181103958
0.1142373979 -0.09699654579 -0.0009753934077351179 -0.0002269365685975608
0.1195588559 -0.09699654579 -0.0009543967637078404 -0.00022134416660162675
0.1248803139 -0.09699654579 -0.0009342725524613593 -0.00021566080172716258
0.1302017719 -0.09699654579 -0.0009126229710575166 -0.0002093652140115198
0.1355232298 -0.09699654579 -0.0009045942524847346 -0.00019200559463298
0.1408446878 -0.09699654579 -0.0009070160402855018 -0.00017095409866601247
0.1461661458 -0.09699654579 -0.0009081399139650063 -0.00014984085177409306
0.1514876038 -0.09699654579 -0.0009119799115890286 -0.00012830638721949411
0.1568090618 -0.09699654579 -0.0009164571951839003 -0.00010680370789393077
0.1621305197 -0.09699654579 -0.0009170631523551186 -8.803736852909053e-05
0.1674519777 -0.09699654579 -0.0009398159117278138 -8.959250795205695e-05
0.1727734357 -0.09699654579 -0.0009692810757192618 -9.808263730413072e-05
0.1780948937 -0.09699654579 -0.0010010278400572553 -0.00010623338011394933
0.1834163517 -0.09699654579 -0.0010335425496113032 -0.00011438339758461262
0.1887378097 -0.09699654579 -0.001060215843121374 -0.00012362669219305588
0.1940592676 -0.09699654579 -0.0010879219492457952 -0.00013287924452828125
0.1993807256 -0.09699654579 -0.0010766755481922629 -0.00016010992720374019
0.2047021836 -0.09699654579 -0.0010527055368078151 -0.00019239193207176998
0.2100236416 -0.09699654579 -0.0010310374160737027 -0.00021853283631961823
0.2153450996 -0.09699654579 -0.0010111933172189651 -0.00024436093721945113
0.2206665576 -0.09699654579 -0.00098962259411007 -0.00027015934073139987
0.2259880155 -0.09699654579 -0.0009685234327681754 -0.00029601225984427637
0.2313094735 -0.09699654579 -0.0009347871035988257 -0.00028243713093031224
0.2366309315 -0.09699654579 -0.0008974180426233339 -0.00025831049493744117
0.2419523895 -0.09699654579 -0.0008627451490031812 -0.00023438254831218309
0.2472738475 -0.09699654579 -0.0008267126750141059 -0.00021039131863908003
0.2525953054 -0.09699654579 -0.0007900968141674182 -0.00018879317758184564
0.2579167783 -0.09699654579 -0.0007557558718510296 -0.00016974232513406427
0.2632382214 -0.09699654579 -0.0007720953858708267 -0.0001504538904946012
0.2685596943 -0.09699654579 -0.0007942318785827212 -0.0001308331662309818
0.2738811374 -0.09699654579 -0.0008185779719356807 -0.00011199994535342878
0.2792026103 -0.09699654579 -0.0008378956528686405 -9.406771832771305e-05
0.2845240533 -0.09699654579 -0.0008575578474426698 -7.601029725993538e-05
0.2898455262 -0.09699654579 -0.0008785577662926201 -5.769063456472953e-05
0.2951669693 -0.09699654579 -0.0008818780384469458 -9.014128391297695e-05
0.3004884422 -0.09699654579 -0.0008814142063566045 -0.0001236434807910971
0.3058098853 -0.09699654579 -0.0008778467348060194 -0.00015829047816009567
0.3111313581 -0.09699654579 -0.0008766460838727408 -0.0001928635066484104
0.3164528012 -0.09699654579 -0.0008758228987160316 -0.00022579029989087187
0.3217742741 -0.09699654579 -0.0008695801025139651 -0.0002533440108111863
0.3270957172 -0.09699654579 -0.0008014880530228356 -0.00025437390559659046
0.3324171901 -0.09699654579 -0.0007348539245667551 -0.0002555044487925739
0.3377386332 -0.09699654579 -0.0006692685036359114 -0.00025609290321808493
0.343060106 -0.09699654579 -0.0006081350119645215 -0.0002560063117026737
0.3483815491 -0.09699654579 -0.0005481367198370265 -0.00025565109645474835
0.353703022 -0.09699654579 -0.00049351304840629 -0.00023511210465336176
0.3590244651 -0.09699654579 -0.0004605236334588065 -0.00017948900324067071
0.364345938 -0.09699654579 -0.000431815229854165 -0.00012809338350311235
0.369667381 -0.09699654579 -0.0004001293782826109 -7.658372257241716e-05
0.3749888539 -0.09699654579 -0.00036891707405137996 -2.5012418526957984e-05
0.380310297 -0.09699654579 -0.0003380655970973419 2.305404818150228e-05
0.3856317699 -0.09699654579 -0.00035604823166794354 5.0951112215655165e-05
0.390953213 -0.09699654579 -0.0003904279506889662 7.546163770824605e-05
0.3962746859 -0.09699654579 -0.0004251083962534496 0.00010070129132471889
0.4015961289 -0.09699654579 -0.0004567068270997119 0.00012384857480203753
0.4069176018 -0.09699654579 -0.00048581159719957023 0.0001447493467655133
0.4122390449 -0.09699654579 -0.0005122190337451803 0.000139348196545095
0.4175605178 -0.09699654579 -0.0005359797056053578 9.920359925471993e-05
0.4228819609 -0.09699654579 -0.0005545577068226515 6.443067190775717e-05
0.4282034338 -0.09699654579 -0.000570227019874441 3.155271022096212e-05
0.4335248768 -0.09699654579 -0.0005891387553510293 -2.0236940367116616e-06
0.4388463497 -0.09699654579 -0.000586842788958463 -4.073034484901695e-05
0.4441677928 -0.09699654579 -0.0005447384698122424 -7.800587491863575e-05
0.4494892657 -0.09699654579 -0.0005003210925474042 -0.00011419315559828981
0.4548107088 -0.09699654579 -0.0004595824183479941 -0.000150501517073939
0.4601321816 -0.09699654579 -0.00041888876732545005 -0.00018630498865372246
0.4654536247 -0.09699654579 -0.0003669298719024161 -0.00020086314881514225
0.4707750976 -0.09699654579 -0.0002973248268752138 -0.00019371106255545556
0.4760965407 -0.09699654579 -0.00022607486038582716 -0.00018608753109996716
0.4814180136 -0.09699654579 -0.0001563731343538298 -0.00017897539031757907
0.4867394567 -0.09699654579 -8.866655050459194e-05 -0.00017204685481986718
0.4920609295 -0.09699654579 -3.878872811669088e-05 -0.0001400676647642576
0.4973823726 -0.09699654579 6.660509864279391e-06 -0.00010190583895836524
0.5027038455 -0.09699654579 5.386513514831368e-05 -6.509287004675004e-05
0.5080252886 -0.09699654579 9.824660883585927e-05 -2.8091511133858294e-05
0.5133467317 -0.09699654579 0.00013058833781100676 9.785231680093559e-06
0.5186682343 -0.09699654579 0.0001481857231725765 4.828814140488259e-05
0.5239896774 -0.09699654579 0.0001690542135726609 8.375641705932634e-05
0.5293111205 -0.09699654579 0.00018872058910662513 0.00012094188632969876
0.5346325636 -0.09699654579 0.00020127065645581774 0.00015232984810801856
0.5399540663 -0.09699654579 0.0002097598958889208 0.0001752635096344045
0.5452755094 -0.09699654579 0.00022353798457763218 0.00019823264924059223
0.5505969524 -0.09699654579 0.0002323710180369311 0.00022150056628666498
0.5559183955 -0.09699654579 0.00024570492188111595 0.00023621727529436913
0.5612398982 -0.09699654579 0.0002605298830377359 0.0002490625014332578
0.5665613413 -0.09699654579 0.00027666626721675725 0.0002619000170964046
0.5718827844 -0.09699654579 0.00029344489685099437 0.0002712356473742366
0.5772042274 -0.09699654579 0.00032140478529213743 0.0002791444238562373
0.5825257301 -0.09699654579 0.0003465016994806023 0.00028730071665880987
0.5878471732 -0.09699654579 0.0003746474039442459 0.00029428344446748804
0.5931686163 -0.09699654579 0.0004109899503746844 0.00030289521243819385
0.5984900594 -0.09699654579 0.0004448052406609179 0.0003110655134965156
0.6038115621 -0.09699654579 0.0004843545391158627 0.0003206098027781063
0.6091330051 -0.09699654579 0.0005253344606752853 0.0003293207346999446
0.6144544482 -0.09699654579 0.0005685345584220821 0.00033951908856021774
0.6197758913 -0.09699654579 0.0006154069311437259 0.000349824963027872
0.625097394 -0.09699654579 0.0006644104466548208 0.0003611834722875697
0.6304188371 -0.09699654579 0.0007143443062861383 0.0003761804239556152
0.6357402802 -0.09699654579 0.0007674162792190049 0.0003918166331744892
0.6410617828 -0.09699654579 0.0008245786886285901 0.0004101895445735068
0.6463832259 -0.09699654579 0.0008808709146157896 0.00043044523235758115
0.651704669 -0.09699654579 0.000936978236786883 0.0004524632197517716
0.6570261121 -0.09699654579 0.0010011181948309505 0.00047788212633187004
0.6623476148 -0.09699654579 0.001064566704596053 0.0005046989226891701
0.6676690578 -0.09699654579 0.001128970833142331 0.0005320796527503943
0.6729905009 -0.09699654579 0.0011948447325272845 0.0005623968842448921
0.678311944 -0.09699654579 0.0012623254237937355 0.0005937443285422127
0.6836334467 -0.09699654579 0.0013299223801120398 0.0006271191383907909
0.6889548898 -0.09699654579 0.0014025615305546094 0.000667467924824343
0.6942763329 -0.09699654579 0.0014721212944469367 0.0007079538647758086
0.6995977759 -0.09699654579 0.0015435290867389304 0.0007504499458194873
0.7049192786 -0.09699654579 0.0016182590262377643 0.0007963891384242856
0.7102407217 -0.09699654579 0.0016917381193963083 0.0008456716309688635
0.7155621648 -0.09699654579 0.0017633127779381004 0.000897846894419458
0.7208836079 -0.09699654579 0.0018380478877718003 0.0009522598088413982
0.7262051105 -0.09699654579 0.001910052721503349 0.001010428081418657
0.7315265536 -0.09699654579 0.0019783739667530425 0.00106988305798064
0.7368479967 -0.09699654579 0.002048751025190534 0.0011345932744415634
0.7421694398 -0.09699654579 0.002114159547156291 0.0012037025695060398
0.7474909425 -0.09699654579 0.0021773865193673017 0.0012757156134089282
0.7528123856 -0.09699654579 0.002233394743067324 0.0013457190329310463
0.7581338286 -0.09699654579 0.002285275995005639 0.00142019896058225
-0.3008363545 -0.09367749095 -0.0004654695122463461 3.235872614974009e-05
-0.2955148816 -0.09367749095 -0.0004738158326740174 2.6501187792662916e-05
-0.2901934385 -0.09367749095 -0.0004564043057700348 -2.184510606508637e-05
-0.2848719656 -0.09367749095 -0.0005152697136525598 -1.856235980282595e-05
-0.2795505226 -0.09367749095 -0.0006452733807768 -9.075831579900016e-06
-0.2742290497 -0.09367749095 -0.0008408642608395332 -1.0223346435595169e-05
-0.2689076066 -0.09367749095 -0.0010584831888804877 -2.8698248963178227e-05