VARIABLES = X,Y,phix,phiy
ZONE I=200,J=200,F=POINT 
-0.3008363545 -0.1003156006 -0.00034777004250664204 -0.0004965575244582567
-0.2955148816 -0.1003156006 -0.0003797949554594457 -0.00045333116070152816
-0.2901934385 -0.1003156006 -0.00040578585085538336 -0.0004169118584858048
-0.2848719656 -0.1003156006 -0.00043773627091986606 -0.00037926646763913625
-0.2795505226 -0.1003156006 -0.00044800945776988 -0.0003850962683457702
-0.2742290497 -0.1003156006 -0.00043965609335977723 -0.00043016039194985404
-0.2689076066 -0.1003156006 -0.0004173258283304173 -0.0004585976425936182
-0.2635861337 -0.1003156006 -0.000452891242271753 -0.00038609083477730643
-0.2582646906 -0.1003156006 -0.0005026811882467708 -0.00024956183062021945
-0.2529432178 -0.1003156006 -0.0005441074373078833 -0.00012951939614614923
-0.2476217598 -0.1003156006 -0.0005581481476498518 -7.540751490183374e-05
-0.2423003018 -0.1003156006 -0.0005223559662223907 -0.00013694446677088682
-0.2369788438 -0.1003156006 -0.0005284576632386457 -0.0001672322982892701
-0.2316573858 -0.1003156006 -0.0005268537368966219 -0.00013553849268692808
-0.2263359278 -0.1003156006 -0.0005434349110040264 -9.188257536579148e-05
-0.2210144699 -0.1003156006 -0.0006107378226209191 -7.908503244889757e-05
-0.2156930119 -0.1003156006 -0.0006746318917351217 -6.201592326092482e-05
-0.2103715539 -0.1003156006 -0.0007536318999179115 -4.73760535370009e-05
-0.2050500959 -0.1003156006 -0.0007840743863431647 -4.503368092026555e-05
-0.1997286379 -0.1003156006 -0.0008310589979814639 -5.1161468004985474e-05
-0.19440718 -0.1003156006 -0.0008813334714897598 -6.353749379005901e-05
-0.189085722 -0.1003156006 -0.0008998498545351988 -0.00010034500609599993
-0.183764264 -0.1003156006 -0.0008987006954525198 -0.00017042118115451655
-0.178442806 -0.1003156006 -0.0008960186200964814 -0.00024353687675955133
-0.173121348 -0.1003156006 -0.0008480614011453828 -0.0002947293595644693
-0.16779989 -0.1003156006 -0.0007992787722128964 -0.00033910167841566324
-0.1624784321 -0.1003156006 -0.0007474856280450953 -0.0003808239510081978
-0.1571569741 -0.1003156006 -0.0007065820245444063 -0.0003965148075261006
-0.1518355161 -0.1003156006 -0.0006780254616083699 -0.00039870491275450685
-0.1465140581 -0.1003156006 -0.0006484678158848295 -0.00040041997691193194
-0.1411926001 -0.1003156006 -0.000631336752977835 -0.0003954253557647855
-0.1358711421 -0.1003156006 -0.000625199686367238 -0.0003785639520075634
-0.1305496842 -0.1003156006 -0.0006203765262603478 -0.00036169871268344235
-0.1252282262 -0.1003156006 -0.0006180390836373295 -0.0003446905515032814
-0.1199067682 -0.1003156006 -0.0006222909678672439 -0.0003296589415235651
-0.1145853102 -0.1003156006 -0.0006275830511538382 -0.0003157306546945254
-0.1092638522 -0.1003156006 -0.0006367259959413952 -0.00029957418646772374
-0.1039423943 -0.1003156006 -0.0006459545749400336 -0.000283160179482276
-0.09862093627 -0.1003156006 -0.0006701900671192772 -0.0002666796101125917
-0.09329947084 -0.1003156006 -0.0006987160116270002 -0.0002498536984569561
-0.08797801286 -0.1003156006 -0.0007280945555588145 -0.00023311384103217125
-0.08265655488 -0.1003156006 -0.0007606153354101017 -0.00021697174249137044
-0.0773350969 -0.1003156006 -0.0007832407126366351 -0.00020247751332739796
-0.07201363891 -0.1003156006 -0.0008060913669261248 -0.00018773531402434179
-0.06669218093 -0.1003156006 -0.0008286351222181038 -0.0001729917537845317
-0.06137072667 -0.1003156006 -0.000851997256360152 -0.00015956955473640991
-0.05604926869 -0.1003156006 -0.0008741643303735811 -0.0001459816017434713
-0.05072781071 -0.1003156006 -0.0008973040759191376 -0.00013249864938757788
-0.045406349 -0.1003156006 -0.0009189850641978402 -0.00011934748848268938
-0.04008489102 -0.1003156006 -0.0009420362723403712 -0.00010531821838234907
-0.03476343304 -0.1003156006 -0.0009655163341116344 -0.00010051055317213555
-0.02944197692 -0.1003156006 -0.0009905013014500502 -0.00011640146616729934
-0.02412051894 -0.1003156006 -0.0010150441993792957 -0.0001326554024559373
-0.01879905909 -0.1003156006 -0.0010404694971762871 -0.0001495669236310674
-0.01347760204 -0.1003156006 -0.0010642791873758787 -0.00016577063148432773
-0.00815614406 -0.1003156006 -0.0010663366151587716 -0.00017300418835495556
-0.00283468538 -0.1003156006 -0.0010473031975280962 -0.00017319813122005043
0.002486772602 -0.1003156006 -0.0010261064325375378 -0.00017498797727082143
0.007808230817 -0.1003156006 -0.0010028662428945812 -0.0001767476738988333
0.0131296888 -0.1003156006 -0.0009852722685807927 -0.0001772121962612209
0.01845114678 -0.1003156006 -0.0009692883527316238 -0.00014486615157689603
0.02377260476 -0.1003156006 -0.0009535577671390852 -8.619794155384551e-05
0.02909406275 -0.1003156006 -0.0009346717458932358 -2.4164988209987562e-05
0.03441552073 -0.1003156006 -0.0009150448183284179 3.7801510516708585e-05
0.03973697871 -0.1003156006 -0.0008997667587109337 9.692165356757087e-05
0.04505843669 -0.1003156006 -0.0009162929185431047 0.00014735803184639485
0.05037989467 -0.1003156006 -0.0009849948391901491 0.00018411513480195171
0.05570135266 -0.1003156006 -0.0010558338193941712 0.0002228898277582422
0.06102281436 -0.1003156006 -0.0011280853756115282 0.0002619560570700607
0.06634426862 -0.1003156006 -0.0011965401123922176 0.0002993153963352349
0.0716657266 -0.1003156006 -0.001264192751412287 0.00033563319609353844
0.07698718458 -0.1003156006 -0.0013044188743770912 0.0003059531972221401
0.08230864257 -0.1003156006 -0.0013463882052711289 0.00027058832883055745
0.08763010055 -0.1003156006 -0.001382942290230204 0.00023346249690304788
0.09295155853 -0.1003156006 -0.0014227585842702978 0.00019829117886651867
0.09827301651 -0.1003156006 -0.0014596303289225111 0.00016413000930778787
0.1035944745 -0.1003156006 -0.0014806562815102607 0.0001281801427862531
0.1089159325 -0.1003156006 -0.0014588461430579177 8.998566126438246e-05
0.1142373979 -0.1003156006 -0.0014385489923084123 5.183822277884305e-05
0.1195588559 -0.1003156006 -0.001421764830882002 1.7722147622936574e-05
0.1248803139 -0.1003156006 -0.0014051240960550298 -1.7774751547160682e-05
0.1302017719 -0.1003156006 -0.0013861167715715885 -5.434443467957663e-05
0.1355232298 -0.1003156006 -0.001354201556074209 -5.0775053302001946e-05
0.1408446878 -0.1003156006 -0.00131408533368482 -1.829277764268003e-05
0.1461661458 -0.1003156006 -0.001279413367757973 1.0585914320384921e-05
0.1514876038 -0.1003156006 -0.001244048826230408 3.950691873361024e-05
0.1568090618 -0.1003156006 -0.001207008349914448 6.851044169305382e-05
0.1621305197 -0.1003156006 -0.0011720809874040598 9.755314413702434e-05
0.1674519777 -0.1003156006 -0.0011791069099901365 0.0001375439272844478
0.1727734357 -0.1003156006 -0.0012051511228354903 0.00018342979295577568
0.1780948937 -0.1003156006 -0.001228416899084894 0.0002294604260610303
0.1834163517 -0.1003156006 -0.0012534390439255256 0.00027537526667397133
0.1887378097 -0.1003156006 -0.0012774106296872326 0.0003180177922092176
0.1940592676 -0.1003156006 -0.0012994197957498519 0.000354431357402524
0.1993807256 -0.1003156006 -0.001341435392851855 0.000342768212434498
0.2047021836 -0.1003156006 -0.0013905523994495084 0.0003146009936321963
0.2100236416 -0.1003156006 -0.00143683184010176 0.0002867805141683671
0.2153450996 -0.1003156006 -0.0014781040136963752 0.0002596611984797918
0.2206665576 -0.1003156006 -0.0015203813697467128 0.00023150614699997301
0.2259880155 -0.1003156006 -0.0015625081588881919 0.00020322378555046012
0.2313094735 -0.1003156006 -0.0015485753347504298 0.00017808982961247847
0.2366309315 -0.1003156006 -0.0015206918164398513 0.00016014038733626446
0.2419523895 -0.1003156006 -0.0014969634855636189 0.00014411048541070073
0.2472738475 -0.1003156006 -0.0014691930883532192 0.00012809783899169302
0.2525953054 -0.1003156006 -0.0014413768210187858 0.00011337161153448669
0.2579167783 -0.1003156006 -0.0014182870132557412 9.902967906299544e-05
0.2632382214 -0.1003156006 -0.0013942303172301777 9.89410647240024e-05
0.2685596943 -0.1003156006 -0.0013745122171538277 0.00010295854850213752
0.2738811374 -0.1003156006 -0.0013563266846879692 0.00010600941394559278
0.2792026103 -0.1003156006 -0.0013369035050306757 0.00010958025504044152
0.2845240533 -0.1003156006 -0.0013140950680232272 0.00011710638201202473
0.2898455262 -0.1003156006 -0.0012949261468505982 0.0001245747596128631
0.2951669693 -0.1003156006 -0.0012537315491797038 0.00010527205698619603
0.3004884422 -0.1003156006 -0.0012143425296619215 8.243372770613202e-05
0.3058098853 -0.1003156006 -0.001171919364938696 6.711070803402023e-05
0.3111313581 -0.1003156006 -0.0011283067405764746 5.160286778934006e-05
0.3164528012 -0.1003156006 -0.0010893091615540962 3.633168204186345e-05
0.3217742741 -0.1003156006 -0.0010481454888829308 2.0759715050357486e-05
0.3270957172 -0.1003156006 -0.0009790931508003341 5.459191471460405e-05
0.3324171901 -0.1003156006 -0.0009094594344732385 8.844365779157653e-05
0.3377386332 -0.1003156006 -0.0008407869047079969 0.00012205543274568469
0.343060106 -0.1003156006 -0.0007695717312612625 0.00015575112704647686
0.3483815491 -0.1003156006 -0.0007082535057522447 0.00018659077258354425
0.353703022 -0.1003156006 -0.0006615352957649758 0.00022831154772407942
0.3590244651 -0.1003156006 -0.0006499894394442622 0.0002937496162288244
0.364345938 -0.1003156006 -0.0006405285319030038 0.0003593458363288771
0.369667381 -0.1003156006 -0.0006277876210516108 0.00041873765445066665
0.3749888539 -0.1003156006 -0.0006168231661436459 0.0004793656547037893
0.380310297 -0.1003156006 -0.0006028580230409129 0.0005410998465727115
0.3856317699 -0.1003156006 -0.0006248239281289741 0.000558366300744648
0.390953213 -0.1003156006 -0.0006422351983076432 0.000563655063539035
0.3962746859 -0.1003156006 -0.0006619974216444517 0.0005687959354999594
0.4015961289 -0.1003156006 -0.0006829775034276048 0.0005748709532895034
0.4069176018 -0.1003156006 -0.0007031245231306455 0.0005814569309139801
0.4122390449 -0.1003156006 -0.0007009544696205769 0.0005769481991242782
0.4175605178 -0.1003156006 -0.0006674911552860368 0.0005531706261034938
0.4228819609 -0.1003156006 -0.0006369280665465291 0.0005262343505904915
0.4282034338 -0.1003156006 -0.000601111994307392 0.0005002107847997513
0.4335248768 -0.1003156006 -0.0005684606699456463 0.0004803407688820252
0.4388463497 -0.1003156006 -0.0005275353373426606 0.0004682749115524206
0.4441677928 -0.1003156006 -0.0004576416158356564 0.00047879860439992313
0.4494892657 -0.1003156006 -0.00038735535458189096 0.0004890969244804121
0.4548107088 -0.1003156006 -0.00032332072071123406 0.0004993001366750172
0.4601321816 -0.1003156006 -0.0002552839284201797 0.0005104852683830518
0.4654536247 -0.1003156006 -0.0001955890620018539 0.0005344055520451565
0.4707750976 -0.1003156006 -0.0001472213997797186 0.0005771215821306635
0.4760965407 -0.1003156006 -0.00010149788244637702 0.0006174772802527713
0.4814180136 -0.1003156006 -5.7797158001293834e-05 0.000657639001261717
0.4867394567 -0.1003156006 -1.1179268777162786e-05 0.0006978749806848705
0.4920609295 -0.1003156006 1.6116116250238415e-05 0.0007331802745666146
0.4973823726 -0.1003156006 3.7118380612156856e-05 0.0007665103026932645
0.5027038455 -0.1003156006 5.370853918628368e-05 0.0007995311285382149
0.5080252886 -0.1003156006 7.421015372581805e-05 0.0008323231005742158
0.5133467317 -0.1003156006 9.394652431959238e-05 0.0008575199192458361
0.5186682343 -0.1003156006 0.00011317869985085833 0.0008730528384865914
0.5239896774 -0.1003156006 0.00013290676424137298 0.00088812415778531
0.5293111205 -0.1003156006 0.0001519782558341472 0.0009042274528786465
0.5346325636 -0.1003156006 0.00017933501311229833 0.0009203143450280867
0.5399540663 -0.1003156006 0.00021637763188294036 0.0009344037215573486
0.5452755094 -0.1003156006 0.0002538021308835685 0.0009469822474242606
0.5505969524 -0.1003156006 0.00029321179655491695 0.0009617723552755086
0.5559183955 -0.1003156006 0.0003364609887570191 0.0009834499425789296
0.5612398982 -0.1003156006 0.00038374985817269113 0.0010052967256598655
0.5665613413 -0.1003156006 0.00043318443259521516 0.0010277967555976685
0.5718827844 -0.1003156006 0.0004760831815358181 0.0010549672733043422
0.5772042274 -0.1003156006 0.0005246143625271617 0.0010887812343213794
0.5825257301 -0.1003156006 0.0005729818705419128 0.001122213094162363
0.5878471732 -0.1003156006 0.0006179715367944623 0.0011594887249324803
0.5931686163 -0.1003156006 0.0006619840238435327 0.001202944644817895
0.5984900594 -0.1003156006 0.0007041120530997965 0.0012468562574349347
0.6038115621 -0.1003156006 0.0007445494098431044 0.0012924010319719124
0.6091330051 -0.1003156006 0.0007823758976117695 0.0013377507700763716
0.6144544482 -0.1003156006 0.0008206116594366171 0.0013857098320630972
0.6197758913 -0.1003156006 0.0008576272234430437 0.0014337115185429532
0.625097394 -0.1003156006 0.000887827555920534 0.0014816594810303171
0.6304188371 -0.1003156006 0.0009170968274982563 0.0015276838922028712
0.6357402802 -0.1003156006 0.0009428745014133403 0.0015719459131212886
0.6410617828 -0.1003156006 0.0009659280002283941 0.0016145774024565198
0.6463832259 -0.1003156006 0.0009925741455053207 0.0016536400071821777
0.651704669 -0.1003156006 0.0010139063922357714 0.0016908849658895406
0.6570261121 -0.1003156006 0.0010402125980257684 0.0017217418930715231
0.6623476148 -0.1003156006 0.001065061188859809 0.0017496228733137858
0.6676690578 -0.1003156006 0.0010911282290982029 0.0017747840025954
0.6729905009 -0.1003156006 0.0011226781255398643 0.0017960136712850143
0.678311944 -0.1003156006 0.0011551322972801418 0.0018144139260479872
0.6836334467 -0.1003156006 0.0011869510659352621 0.0018285344093829838
0.6889548898 -0.1003156006 0.001231685174213702 0.0018407732746849625
0.6942763329 -0.1003156006 0.0012802536001025582 0.001845174429560362
0.6995977759 -0.1003156006 0.001332099783480459 0.0018486375964254622
0.7049192786 -0.1003156006 0.0013937671890524139 0.0018520372201681855
0.7102407217 -0.1003156006 0.0014633657736944081 0.001854857454390023
0.7155621648 -0.1003156006 0.0015418492982440654 0.001860148842636844
0.7208836079 -0.1003156006 0.0016304896164585994 0.0018664324169170344
0.7262051105 -0.1003156006 0.0017290828653094914 0.0018744223002154284
0.7315265536 -0.1003156006 0.0018370775848168747 0.001891203714277241
0.7368479967 -0.1003156006 0.0019610534629680293 0.0019195275768926793
0.7421694398 -0.1003156006 0.0020966794693970977 0.0019578200271927566
0.7474909425 -0.1003156006 0.0022346541479498295 0.0020088422808183393
0.7528123856 -0.1003156006 0.002379746808479311 0.0020809379980295532
0.7581338286 -0.1003156006 0.0025328131108197697 0.0021753004638683676
-0.3008363545 -0.09699654579 -0.00031310179696885493 -0.0004701914766295296
-0.2955148816 -0.09699654579 -0.00034610071773579187 -0.0004269672354114972
-0.2901934385 -0.09699654579 -0.0004034677601612846 -0.00036714813156107115
-0.2848719656 -0.09699654579 -0.0004257736887283783 -0.00034623699418370003
-0.2795505226 -0.09699654579 -0.00042777947539788185 -0.0003606738385871086
-0.2742290497 -0.09699654579 -0.00041654226165946075 -0.00039643619546297145
-0.2689076066 -0.09699654579 -0.0003877659059685297 -0.0004199808361821983
-0.2635861337 -0.09699654579 -0.00036982498204126817 -0.00038263062842741423
-0.2582646906 -0.09699654579 -0.00041303633001837903 -0.00024166509593224117
-0.2529432178 -0.09699654579 -0.0004454194233848634 -0.0001671982618726975
-0.2476217598 -0.09699654579 -0.00042191305597112053 -0.00017705294662768005
-0.2423003018 -0.09699654579 -0.00037946743632615503 -0.00017766572259375791
-0.2369788438 -0.09699654579 -0.00036758690146165867 -0.00015621843448484265
-0.2316573858 -0.09699654579 -0.0003769544918955917 -0.0001160613697711697
-0.2263359278 -0.09699654579 -0.0003818815484450523 -4.643004793762033e-05
-0.2210144699 -0.09699654579 -0.00042914540149029226 -2.40200837184496e-05
-0.2156930119 -0.09699654579 -0.0005092598340839184 -7.330005662490229e-06
-0.2103715539 -0.09699654579 -0.0006212938486566249 4.343509875847959e-06
-0.2050500959 -0.09699654579 -0.0006840184910299258 7.01207835974404e-06
-0.1997286379 -0.09699654579 -0.000735361266033526 -5.672272617004201e-06
-0.19440718 -0.09699654579 -0.00079807931866116 -1.688255113894816e-05
-0.189085722 -0.09699654579 -0.0008062799515392577 -8.580977103501176e-05
-0.183764264 -0.09699654579 -0.0007987882122934174 -0.00016415586205121308
-0.178442806 -0.09699654579 -0.0007689473184016238 -0.00025690145665401666
-0.173121348 -0.09699654579 -0.0007237288510388039 -0.00031259957440287763
-0.16779989 -0.09699654579 -0.0006720311772204191 -0.0003531556929217469
-0.1624784321 -0.09699654579 -0.0006279912593962389 -0.0003970693229638955
-0.1571569741 -0.09699654579 -0.0005972627127576297 -0.00041119932567747653
-0.1518355161 -0.09699654579 -0.0005825881158039703 -0.00041015554156488397
-0.1465140581 -0.09699654579 -0.0005710598515926764 -0.00040455377769340884
-0.1411926001 -0.09699654579 -0.0005612980516783521 -0.0003947267660605011
-0.1358711421 -0.09699654579 -0.0005607021425287617 -0.0003775214885387421
-0.1305496842 -0.09699654579 -0.0005637779708140906 -0.0003598973229659307
-0.1252282262 -0.09699654579 -0.0005717946549836209 -0.0003429697631447693
-0.1199067682 -0.09699654579 -0.0005964996391001186 -0.0003249905806778401
-0.1145853102 -0.09699654579 -0.0006180184388309842 -0.00030894083524736867
-0.1092638522 -0.09699654579 -0.0006438953214907952 -0.0002920062652634322
-0.1039423943 -0.09699654579 -0.0006740667847873144 -0.00027239610498851007
-0.09862093627 -0.09699654579 -0.00071254241820362 -0.0002566608675309596
-0.09329947084 -0.09699654579 -0.0007524429370314071 -0.0002410291674831774
-0.08797801286 -0.09699654579 -0.0007943231416037024 -0.00022531684708190257
-0.08265655488 -0.09699654579 -0.0008352655552008256 -0.00020938621242606306
-0.0773350969 -0.09699654579 -0.00085652908167231 -0.00019642904754988772
-0.07201363891 -0.09699654579 -0.0008771968248052997 -0.00018412239442356797
-0.06669218093 -0.09699654579 -0.000897176753051616 -0.00017151743053725094
-0.06137072667 -0.09699654579 -0.0009127303412609267 -0.00015744356379557636
-0.05604926869 -0.09699654579 -0.0009356418052097804 -0.00014152916817324155
-0.05072781071 -0.09699654579 -0.0009573126303533564 -0.00012532223957695805
-0.045406349 -0.09699654579 -0.000979354298936483 -0.00010912159446787212
-0.04008489102 -0.09699654579 -0.0010036921660953985 -9.205852514495949e-05
-0.03476343304 -0.09699654579 -0.0010284870304117738 -8.533614427655493e-05
-0.02944197692 -0.09699654579 -0.0010553490927116748 -0.00010427700722276097
-0.02412051894 -0.09699654579 -0.0010803436037106248 -0.00012261294869380765
-0.01879905909 -0.09699654579 -0.0011078580296155333 -0.0001414708840793413
-0.01347760204 -0.09699654579 -0.0011358940541498109 -0.0001614336604809509
-0.00815614406 -0.09699654579 -0.001131180949007713 -0.000172689273045553
-0.00283468538 -0.09699654579 -0.0011019352974453286 -0.0001770612346223607
0.002486772602 -0.09699654579 -0.001071409407704887 -0.0001826898598747486
0.007808230817 -0.09699654579 -0.0010393728712795914 -0.00018865546654800179
0.0131296888 -0.09699654579 -0.0010098840829666008 -0.0001936175375880104
0.01845114678 -0.09699654579 -0.0009818044258644101 -0.00015771490020410713
0.02377260476 -0.09699654579 -0.0009574464900709821 -9.108476360528732e-05
0.02909406275 -0.09699654579 -0.0009292606472841378 -2.1623972862620964e-05
0.03441552073 -0.09699654579 -0.0008989108750851091 4.8357843758837875e-05
0.03973697871 -0.09699654579 -0.0008768401616191867 0.00011512424525602957
0.04505843669 -0.09699654579 -0.0008897583624117045 0.0001722625397204804
0.05037989467 -0.09699654579 -0.0009653118814546401 0.00021279234692209655
0.05570135266 -0.09699654579 -0.0010437939443678852 0.00025363974472324857
0.06102281436 -0.09699654579 -0.0011213217804053061 0.00029507881722580666
0.06634426862 -0.09699654579 -0.0011980266890119597 0.0003353538252844216
0.0716657266 -0.09699654579 -0.0012729397946968557 0.00037565204597418694
0.07698718458 -0.09699654579 -0.001319470100823463 0.0003380589326523225
0.08230864257 -0.09699654579 -0.0013618539240649375 0.00029544974399412237
0.08763010055 -0.09699654579 -0.0014051722250245367 0.000254432705161358
0.09295155853 -0.09699654579 -0.0014469661551992023 0.00021381412688953376
0.09827301651 -0.09699654579 -0.0014891369181747633 0.00017261150909685943
0.1035944745 -0.09699654579 -0.001507718205302164 0.00013014067711532174
0.1089159325 -0.09699654579 -0.0014821048072516181 8.718328490246548e-05
0.1142373979 -0.09699654579 -0.0014581284232105776 4.571685905228998e-05
0.1195588559 -0.09699654579 -0.0014372041905134174 5.046321970255034e-06
0.1248803139 -0.09699654579 -0.0014163239955022463 -3.550206114676595e-05
0.1302017719 -0.09699654579 -0.0013927530234391866 -7.68506849097875e-05
0.1355232298 -0.09699654579 -0.001355902948231558 -6.933486432558628e-05
0.1408446878 -0.09699654579 -0.0013140154748435262 -3.196785966978658e-05
0.1461661458 -0.09699654579 -0.0012726645364558736 5.577629226103452e-06
0.1514876038 -0.09699654579 -0.0012274149091586585 4.3066512170305526e-05
0.1568090618 -0.09699654579 -0.0011818979122779239 8.055661600120563e-05
0.1621305197 -0.09699654579 -0.001140691891123921 0.00011463491739883836
0.1674519777 -0.09699654579 -0.001149981687641757 0.00015774839845405023
0.1727734357 -0.09699654579 -0.001177529772845467 0.00020478928202767095
0.1780948937 -0.09699654579 -0.0012048251395203025 0.0002522603856262892
0.1834163517 -0.09699654579 -0.0012323421336805954 0.0002995276584377137
0.1887378097 -0.09699654579 -0.001261713625379403 0.00034566497390838534
0.1940592676 -0.09699654579 -0.0012889488211102165 0.00039175783669012887
0.1993807256 -0.09699654579 -0.0013421771053142172 0.00037564541291685986
0.2047021836 -0.09699654579 -0.0014056702343378349 0.00034174288587055104
0.2100236416 -0.09699654579 -0.0014629278783608675 0.0003181106426114921
0.2153450996 -0.09699654579 -0.0015189612352974789 0.0002948647542367165
0.2206665576 -0.09699654579 -0.0015761635856973936 0.00027152126214267773
0.2259880155 -0.09699654579 -0.0016349917442283336 0.00024834984676091126
0.2313094735 -0.09699654579 -0.001619880553064879 0.0002244403292646486
0.2366309315 -0.09699654579 -0.0015835909676698335 0.00019772336449165573
0.2419523895 -0.09699654579 -0.001549203617622015 0.00017100005376353668
0.2472738475 -0.09699654579 -0.0015089101149785334 0.00014428317903504372
0.2525953054 -0.09699654579 -0.0014794191168084755 0.00012207685276104785
0.2579167783 -0.09699654579 -0.0014498803898772602 0.00010304161623614556
0.2632382214 -0.09699654579 -0.0014284755390050077 9.927056918811438e-05
0.2685596943 -0.09699654579 -0.0014106148068122252 9.988768016163169e-05
0.2738811374 -0.09699654579 -0.0013927148904530925 0.00010142815857727016
0.2792026103 -0.09699654579 -0.0013767893510147392 0.00010516714490241673
0.2845240533 -0.09699654579 -0.0013620089593801717 0.0001082645144236891
0.2898455262 -0.09699654579 -0.0013456766449938045 0.00011049118835104973
0.2951669693 -0.09699654579 -0.001309524429101196 8.329738771992245e-05
0.3004884422 -0.09699654579 -0.0012705282932942603 5.628315894786132e-05
0.3058098853 -0.09699654579 -0.0012302937168433006 2.9955573541782095e-05
0.3111313581 -0.09699654579 -0.0011870508846288572 3.5959211609253228e-06
0.3164528012 -0.09699654579 -0.001146574508540211 -2.0626277034228452e-05
0.3217742741 -0.09699654579 -0.001101974203258466 -3.605034141173715e-05
0.3270957172 -0.09699654579 -0.0010285433064197188 4.233194430580226e-06
0.3324171901 -0.09699654579 -0.0009527096588807475 4.466686575552429e-05
0.3377386332 -0.09699654579 -0.0008797208217704432 8.334709389750598e-05
0.343060106 -0.09699654579 -0.0008096020584585673 0.00011998812832859785
0.3483815491 -0.09699654579 -0.0007397234117753912 0.0001576156632170806
0.353703022 -0.09699654579 -0.000690260205538391 0.00021002273700033218
0.3590244651 -0.09699654579 -0.0006842543272862063 0.0002851200080853364
0.364345938 -0.09699654579 -0.0006760482404828608 0.0003540287716273645
0.369667381 -0.09699654579 -0.0006680746469698825 0.00042307640700954633
0.3749888539 -0.09699654579 -0.0006576758548681164 0.0004917441425965445
0.380310297 -0.09699654579 -0.0006476850633058943 0.0005568007091912788
0.3856317699 -0.09699654579 -0.000668545378787401 0.000571622580151315
0.390953213 -0.09699654579 -0.0006978635147421254 0.0005731638884326515
0.3962746859 -0.09699654579 -0.0007323398187468914 0.00057308693054048
0.4015961289 -0.09699654579 -0.0007609320229749126 0.0005759700135967387
0.4069176018 -0.09699654579 -0.0007852943375504668 0.0005796010234217757
0.4122390449 -0.09699654579 -0.0007824333499435538 0.0005663814001676871
0.4175605178 -0.09699654579 -0.0007446475705128235 0.0005311448099509032
0.4228819609 -0.09699654579 -0.0007081199479224027 0.0005026931561290502
0.4282034338 -0.09699654579 -0.0006718093914733474 0.0004762638024823961
0.4335248768 -0.09699654579 -0.0006331982474327095 0.00044945830688017277
0.4388463497 -0.09699654579 -0.0005832055954896656 0.0004312516371953461
0.4441677928 -0.09699654579 -0.0005040124622264726 0.0004414965316560364
0.4494892657 -0.09699654579 -0.00042629389591852823 0.00045198291952852523
0.4548107088 -0.09699654579 -0.00034804125453243506 0.00046229741024087027
0.4601321816 -0.09699654579 -0.000275324654827535 0.0004721089654844972
0.4654536247 -0.09699654579 -0.0002146706083741677 0.0004969133860121453
0.4707750976 -0.09699654579 -0.00016433839510873746 0.000542293250583891
0.4760965407 -0.09699654579 -0.00011337948178060739 0.0005906913362174238
0.4814180136 -0.09699654579 -6.52084222529068e-05 0.0006358067110397943
0.4867394567 -0.09699654579 -1.796402090565966e-05 0.0006792738971820892
0.4920609295 -0.09699654579 7.5194365288493825e-06 0.0007162303534909118
0.4973823726 -0.09699654579 2.490854523110696e-05 0.0007509132863481672
0.5027038455 -0.09699654579 4.580752709672717e-05 0.000784708781322012
0.5080252886 -0.09699654579 6.476582307535202e-05 0.0008190970728673204
0.5133467317 -0.09699654579 8.40050903715157e-05 0.0008438203666716177
0.5186682343 -0.09699654579 0.00010411960677920803 0.0008575553334596722
0.5239896774 -0.09699654579 0.00012589679219098793 0.000872669635755351
0.5293111205 -0.09699654579 0.00014939896961016562 0.0008874705397208804
0.5346325636 -0.09699654579 0.00017658139035460664 0.0008993925499926486
0.5399540663 -0.09699654579 0.0002168846917619504 0.0009118316083430612
0.5452755094 -0.09699654579 0.0002577332083918867 0.0009245995418207843
0.5505969524 -0.09699654579 0.00029896866853136876 0.0009372697396656765
0.5559183955 -0.09699654579 0.0003492553157820948 0.0009560953684114909
0.5612398982 -0.09699654579 0.0003964266218126197 0.0009773073124349858
0.5665613413 -0.09699654579 0.00044474373384295195 0.0009989217232902227
0.5718827844 -0.09699654579 0.0004976444793816169 0.0010254139751174347
0.5772042274 -0.09699654579 0.0005451342745591107 0.0010590934856375075
0.5825257301 -0.09699654579 0.0005941002287634833 0.001093309663747123
0.5878471732 -0.09699654579 0.0006438380290585617 0.0011314931659267943
0.5931686163 -0.09699654579 0.0006889688455630694 0.0011757764061027167
0.5984900594 -0.09699654579 0.0007363427961477949 0.0012205040049408959
0.6038115621 -0.09699654579 0.0007783474634221068 0.0012667979931201903
0.6091330051 -0.09699654579 0.0008172298882552035 0.0013149897277176651
0.6144544482 -0.09699654579 0.0008568810024296783 0.001362560286629507
0.6197758913 -0.09699654579 0.0008925473195886964 0.0014133216072901415
0.625097394 -0.09699654579 0.0009240061369633792 0.0014630151059665999
0.6304188371 -0.09699654579 0.0009517777135322022 0.0015105793517200628
0.6357402802 -0.09699654579 0.0009742216160195101 0.0015573750654889393
0.6410617828 -0.09699654579 0.0009976056977951525 0.0016002483972389083
0.6463832259 -0.09699654579 0.0010205861948970692 0.001640262332192939
0.651704669 -0.09699654579 0.0010414467633737478 0.001676918946082035
0.6570261121 -0.09699654579 0.001065573301176477 0.0017072409955507272
0.6623476148 -0.09699654579 0.0010886056340777865 0.001734635923047708
0.6676690578 -0.09699654579 0.0011103875462375923 0.0017578196055353797
0.6729905009 -0.09699654579 0.001141751136153769 0.001778474500032434
0.678311944 -0.09699654579 0.0011693245297790006 0.001793045391474688
0.6836334467 -0.09699654579 0.0011983713316860544 0.0018047756561815418
0.6889548898 -0.09699654579 0.001241797829512098 0.0018137677226663174
0.6942763329 -0.09699654579 0.0012857488239417848 0.0018141916745336682
0.6995977759 -0.09699654579 0.0013396198232108268 0.0018122244110843205
0.7049192786 -0.09699654579 0.001397685891842128 0.0018107853626842375
0.7102407217 -0.09699654579 0.001470057453811201 0.0018083391972222073
0.7155621648 -0.09699654579 0.0015490833445873954 0.00180761503261301
0.7208836079 -0.09699654579 0.0016433961037752853 0.0018054352048914267
0.7262051105 -0.09699654579 0.0017459190382459646 0.001807099283828841
0.7315265536 -0.09699654579 0.0018569556800799047 0.0018155429346152804
0.7368479967 -0.09699654579 0.0019875709968895216 0.0018335350066400146
0.7421694398 -0.09699654579 0.0021285299948903525 0.001866806290747519
0.7474909425 -0.09699654579 0.0022825412661458162 0.001912579927040738
0.7528123856 -0.09699654579 0.002444440314190918 0.001979162819452552
0.7581338286 -0.09699654579 0.0026035058417462837 0.0020743247294145355
-0.3008363545 -0.09367749095 -0.0002683807404234154 -0.00044669885797094146
-0.2955148816 -0.09367749095 -0.00030235943875519064 -0.000396735407973454
-0.2901934385 -0.09367749095 -0.00038680551507222055 -0.00032341769559527853
-0.2848719656 -0.09367749095 -0.0004078302060628259 -0.0003115317443139401
-0.2795505226 -0.09367749095 -0.00040740676956666346 -0.00032758881550671687
-0.2742290497 -0.09367749095 -0.0003895740464137643 -0.0003628949029308198
-0.2689076066 -0.09367749095 -0.00035838177182417777 -0.00037982723458570785
-0.2635861337 -0.09367749095 -0.00030608339462110664 -0.00034444615306682667
-0.2582646906 -0.09367749095 -0.0003187892706005399 -0.00026743510485052486