VARIABLES = X,Y,phix,phiy
ZONE I=200,J=200,F=POINT 
-0.3008363545 -0.1003156006 0.0002575322632774128 1.3053248565267878e-05
-0.2955148816 -0.1003156006 0.000292918354783148 3.913755432766818e-05
-0.2901934385 -0.1003156006 0.0002889104334263936 5.3429274746404555e-05
-0.2848719656 -0.1003156006 0.00027897393206237256 6.381894235805694e-05
-0.2795505226 -0.1003156006 0.0003087751062895563 6.49493905965702e-05
-0.2742290497 -0.1003156006 0.0004213553438506712 6.43398750649971e-05
-0.2689076066 -0.1003156006 0.0005358947916565828 4.608315758017072e-05
-0.2635861337 -0.1003156006 0.0004780474233620219 2.7342358743696902e-05
-0.2582646906 -0.1003156006 0.00036109819948943524 2.1698993140279692e-05
-0.2529432178 -0.1003156006 0.0002424056703423162 3.2126971260655145e-05
-0.2476217598 -0.1003156006 0.00011543543867278204 5.2481730335999184e-05
-0.2423003018 -0.1003156006 2.513472174738153e-06 4.829766267844196e-05
-0.2369788438 -0.1003156006 -0.0001127627255848286 2.829833889078153e-05
-0.2316573858 -0.1003156006 -0.0002498299360676587 4.2877425170522395e-06
-0.2263359278 -0.1003156006 -0.00038946764651831556 -2.035514375113028e-05
-0.2210144699 -0.1003156006 -0.00034042776079469094 -3.1878043262473806e-05
-0.2156930119 -0.1003156006 -0.00027571966618328714 -4.1330260297199714e-05
-0.2103715539 -0.1003156006 -0.00018744423859640778 -5.109337446539978e-05
-0.2050500959 -0.1003156006 -0.00025425067494968303 -7.261716404251366e-05
-0.1997286379 -0.1003156006 -0.000337835104398142 -0.00011191907086560609
-0.19440718 -0.1003156006 -0.00044348541244272204 -0.00013969191179611187
-0.189085722 -0.1003156006 -0.000450060977165836 -0.0001718898246478948
-0.183764264 -0.1003156006 -0.0004489672663017793 -0.0002056591197506581
-0.178442806 -0.1003156006 -0.00044244233835445435 -0.00023921941015218437
-0.173121348 -0.1003156006 -0.0004375741594610295 -0.00023023429504775354
-0.16779989 -0.1003156006 -0.0004274567877997268 -0.00021416749727706222
-0.1624784321 -0.1003156006 -0.00042153567288469676 -0.00020608683348988284
-0.1571569741 -0.1003156006 -0.00042504807820155073 -0.00018780969941388306
-0.1518355161 -0.1003156006 -0.00043026454982857647 -0.00015992292588133794
-0.1465140581 -0.1003156006 -0.0004346151091922605 -0.00013165650613982413
-0.1411926001 -0.1003156006 -0.00043337261083373067 -0.00011153437850147027
-0.1358711421 -0.1003156006 -0.0004274450265327141 -0.00010326603526845161
-0.1305496842 -0.1003156006 -0.0004247095813312493 -9.514484178161346e-05
-0.1252282262 -0.1003156006 -0.00042033384229543485 -8.390869407464418e-05
-0.1199067682 -0.1003156006 -0.0004457946078913303 -6.314396627254962e-05
-0.1145853102 -0.1003156006 -0.00048220709422983776 -3.92213784145766e-05
-0.1092638522 -0.1003156006 -0.0005221993195987246 -1.6248492144128667e-05
-0.1039423943 -0.1003156006 -0.0005593166723558991 5.169924862192031e-06
-0.09862093627 -0.1003156006 -0.0005946720468646538 1.3853737937389166e-05
-0.09329947084 -0.1003156006 -0.0006313679446553695 2.294954550899595e-05
-0.08797801286 -0.1003156006 -0.0006694647092965623 3.202125375029052e-05
-0.08265655488 -0.1003156006 -0.00070403080269601 4.075156624526515e-05
-0.0773350969 -0.1003156006 -0.0007260771756790828 3.400597153604095e-05
-0.07201363891 -0.1003156006 -0.0007465345123638128 2.7459807000236807e-05
-0.06669218093 -0.1003156006 -0.0007688768307661739 2.0924993951136605e-05
-0.06137072667 -0.1003156006 -0.0007882655526561096 1.077978787773021e-05
-0.05604926869 -0.1003156006 -0.0007952534580067176 1.1130836910502936e-06
-0.05072781071 -0.1003156006 -0.0007988609132978263 -7.678793140682026e-06
-0.045406349 -0.1003156006 -0.000802968009079913 -1.6977788521250173e-05
-0.04008489102 -0.1003156006 -0.0008085734745073591 -2.55320295841388e-05
-0.03476343304 -0.1003156006 -0.0008089726118158471 -3.353355496563782e-05
-0.02944197692 -0.1003156006 -0.0008069365933344242 -3.858392496640625e-05
-0.02412051894 -0.1003156006 -0.0008047391884969946 -4.386405411961259e-05
-0.01879905909 -0.1003156006 -0.0008029043028301117 -4.9270471838387366e-05
-0.01347760204 -0.1003156006 -0.0007985252494250118 -5.457417933541627e-05
-0.00815614406 -0.1003156006 -0.000793029651665677 -5.969118828225672e-05
-0.00283468538 -0.1003156006 -0.0007796914793164765 -6.430581651798014e-05
0.002486772602 -0.1003156006 -0.0007721170278360953 -6.95450447319149e-05
0.007808230817 -0.1003156006 -0.0007627982617842833 -7.484041583957727e-05
0.0131296888 -0.1003156006 -0.0007503693550457266 -7.952484231045162e-05
0.01845114678 -0.1003156006 -0.0007405628804365065 -6.829289561580562e-05
0.02377260476 -0.1003156006 -0.0007328643200453751 -4.441176838721766e-05
0.02909406275 -0.1003156006 -0.0007248572948744777 -1.9144069890618753e-05
0.03441552073 -0.1003156006 -0.0007146017128025175 6.1389034918176365e-06
0.03973697871 -0.1003156006 -0.0007087344582226204 3.017672450184765e-05
0.04505843669 -0.1003156006 -0.0007108938097135905 5.1072559491157554e-05
0.05037989467 -0.1003156006 -0.0007389161037253297 6.997429080961218e-05
0.05570135266 -0.1003156006 -0.0007683461486131502 9.040694883829708e-05
0.06102281436 -0.1003156006 -0.000798694555586976 0.00011146368669148564
0.06634426862 -0.1003156006 -0.0008285252449941664 0.0001309693493948818
0.0716657266 -0.1003156006 -0.0008547240293360619 0.00014947530160817237
0.07698718458 -0.1003156006 -0.0008991074297848783 0.00012717503340503987
0.08230864257 -0.1003156006 -0.000944721174343468 0.00010154369277300908
0.08763010055 -0.1003156006 -0.0009902685257508195 7.516207447826917e-05
0.09295155853 -0.1003156006 -0.00103417501258154 4.951012507749581e-05
0.09827301651 -0.1003156006 -0.0010791765350510534 2.4178080356626106e-05
0.1035944745 -0.1003156006 -0.001106757658155743 -1.0317416827601608e-05
0.1089159325 -0.1003156006 -0.0011037694600113939 -6.271538799252495e-05
0.1142373979 -0.1003156006 -0.0010985640931585167 -0.0001150192589370246
0.1195588559 -0.1003156006 -0.0010941354917601005 -0.00016338757655195735
0.1248803139 -0.1003156006 -0.0010918905362582764 -0.00021338216305646817
0.1302017719 -0.1003156006 -0.0010875613891845994 -0.00026404145825834903
0.1355232298 -0.1003156006 -0.0010569628356829448 -0.0002950125625005296
0.1408446878 -0.1003156006 -0.0010098422991790816 -0.0003114204997338216
0.1461661458 -0.1003156006 -0.0009622418989024893 -0.0003290223890794437
0.1514876038 -0.1003156006 -0.0009162350624528888 -0.0003467866274194365
0.1568090618 -0.1003156006 -0.0008698033719077391 -0.00036438499676269776
0.1621305197 -0.1003156006 -0.0008249496556774074 -0.0003819174570259353
0.1674519777 -0.1003156006 -0.0007984329034230649 -0.0003671833029473005
0.1727734357 -0.1003156006 -0.0007801150893692095 -0.00033845316329126685
0.1780948937 -0.1003156006 -0.0007621856732376871 -0.0003098838346632699
0.1834163517 -0.1003156006 -0.0007425298447562353 -0.0002811647422604226
0.1887378097 -0.1003156006 -0.0007238291986481624 -0.00025375549020450816
0.1940592676 -0.1003156006 -0.0007053331488850288 -0.00022820981754756046
0.1993807256 -0.1003156006 -0.0007028583545590687 -0.00021073532166445368
0.2047021836 -0.1003156006 -0.0007040807537553161 -0.00019629336924742566
0.2100236416 -0.1003156006 -0.000706356466961991 -0.00018167477501516762
0.2153450996 -0.1003156006 -0.0007061037738266659 -0.00016744392557194542
0.2206665576 -0.1003156006 -0.0007057435329400752 -0.0001532883085074677
0.2259880155 -0.1003156006 -0.0007050819399278428 -0.00013934490898644038
0.2313094735 -0.1003156006 -0.000699415812765439 -0.00011439796426822887
0.2366309315 -0.1003156006 -0.0006884875121606017 -8.787722485834658e-05
0.2419523895 -0.1003156006 -0.0006789976540475044 -6.1816308349635e-05
0.2472738475 -0.1003156006 -0.0006709810306319667 -3.587572840280187e-05
0.2525953054 -0.1003156006 -0.0006650362194438918 -9.055170760013918e-06
0.2579167783 -0.1003156006 -0.0006608472003760317 1.572942546395903e-05
0.2632382214 -0.1003156006 -0.0006898230888570595 3.647752057473381e-05
0.2685596943 -0.1003156006 -0.0007291432729281723 5.682558017396881e-05
0.2738811374 -0.1003156006 -0.0007721373330196558 7.89994548614522e-05
0.2792026103 -0.1003156006 -0.0008116508480488693 9.960010810520383e-05
0.2845240533 -0.1003156006 -0.0008459907761398662 0.00011807472824676069
0.2898455262 -0.1003156006 -0.0008811525726412326 0.000136591048361621
0.2951669693 -0.1003156006 -0.0009046704483055199 0.0001037309790389128
0.3004884422 -0.1003156006 -0.0009254285666881282 6.299383597000555e-05
0.3058098853 -0.1003156006 -0.0009423564697770313 2.9758437088482045e-05
0.3111313581 -0.1003156006 -0.0009587496244483641 -3.625276324600552e-06
0.3164528012 -0.1003156006 -0.000973703156318562 -3.695601200539434e-05
0.3217742741 -0.1003156006 -0.0009900741183080963 -6.981960226588849e-05
0.3270957172 -0.1003156006 -0.000933525085533467 -7.585620422749184e-05
0.3324171901 -0.1003156006 -0.0008769989891813526 -8.176628586380752e-05
0.3377386332 -0.1003156006 -0.0008215726549802866 -8.760513991225107e-05
0.343060106 -0.1003156006 -0.0007666923169269424 -9.369331481852609e-05
0.3483815491 -0.1003156006 -0.0007167023390384525 -9.756602476692753e-05
0.353703022 -0.1003156006 -0.0006804216862553171 -8.22861738169758e-05
0.3590244651 -0.1003156006 -0.0006651227137250088 -2.2836763336915144e-05
0.364345938 -0.1003156006 -0.0006505089859840998 3.611320171040166e-05
0.369667381 -0.1003156006 -0.0006352288132150526 8.619788349094023e-05
0.3749888539 -0.1003156006 -0.000619572913244568 0.00013820748096642264
0.380310297 -0.1003156006 -0.0006065637000730924 0.00019186938725333216
0.3856317699 -0.1003156006 -0.0006495274191805758 0.0002131104423446433
0.390953213 -0.1003156006 -0.0006979676091741653 0.00022084054483313646
0.3962746859 -0.1003156006 -0.0007472241151591138 0.0002282875981861032
0.4015961289 -0.1003156006 -0.0007955165952845726 0.00023649452199978418
0.4069176018 -0.1003156006 -0.0008387830507045818 0.00024564444648350733
0.4122390449 -0.1003156006 -0.0008644936084813163 0.0002293443876297872
0.4175605178 -0.1003156006 -0.0008782723498782354 0.00017477951111883987
0.4228819609 -0.1003156006 -0.0008924451119852345 0.00011634761856373341
0.4282034338 -0.1003156006 -0.0009065903403850954 5.9145404280844055e-05
0.4335248768 -0.1003156006 -0.0009139724948771298 9.943659950376227e-06
0.4388463497 -0.1003156006 -0.0009031935509153515 -3.618239315857974e-05
0.4441677928 -0.1003156006 -0.0008364462887122434 -7.443224913903272e-05
0.4494892657 -0.1003156006 -0.0007709458239570595 -0.00011163525140259297
0.4548107088 -0.1003156006 -0.0007095838910325458 -0.00014441058394237542
0.4601321816 -0.1003156006 -0.0006464372953305932 -0.0001796241044213655
0.4654536247 -0.1003156006 -0.0005756136975490467 -0.00019391861035648455
0.4707750976 -0.1003156006 -0.0004947059963546824 -0.00017516882512981797
0.4760965407 -0.1003156006 -0.0004206320846094472 -0.00015760840202795091
0.4814180136 -0.1003156006 -0.0003480344995472373 -0.00014006525804261295
0.4867394567 -0.1003156006 -0.00027356633068499825 -0.0001226037090389961
0.4920609295 -0.1003156006 -0.00021915499335895458 -8.276658437701645e-05
0.4973823726 -0.1003156006 -0.00017652042098153414 -3.758870106109071e-05
0.5027038455 -0.1003156006 -0.00013323413383738758 7.296533649849013e-06
0.5080252886 -0.1003156006 -9.128937689532033e-05 5.220316567885875e-05
0.5133467317 -0.1003156006 -6.449573467787379e-05 9.09888523636268e-05
0.5186682343 -0.1003156006 -5.228364217500508e-05 0.00013141973710944423
0.5239896774 -0.1003156006 -4.114812166959272e-05 0.00017141056123612318
0.5293111205 -0.1003156006 -2.8161421836145903e-05 0.00021077059672476996
0.5346325636 -0.1003156006 -2.0298767654665127e-05 0.00023963619229719295
0.5399540663 -0.1003156006 -1.6952391626964053e-05 0.0002595818058843661
0.5452755094 -0.1003156006 -1.6128606208407805e-05 0.00027898799091254106
0.5505969524 -0.1003156006 -1.3127134120536158e-05 0.00029890659580370134
0.5559183955 -0.1003156006 -5.636208615241813e-06 0.0003084241143065986
0.5612398982 -0.1003156006 5.185132517975953e-06 0.00031265642443532377
0.5665613413 -0.1003156006 1.638957657889569e-05 0.00031717524930538693
0.5718827844 -0.1003156006 2.835995023892708e-05 0.00032125772146309595
0.5772042274 -0.1003156006 4.891869615197705e-05 0.00031935155831389994
0.5825257301 -0.1003156006 7.023921232915757e-05 0.0003174051053440277
0.5878471732 -0.1003156006 9.143456322590085e-05 0.00031660192961234057
0.5931686163 -0.1003156006 0.00012142941107383957 0.00031428533632746894
0.5984900594 -0.1003156006 0.00015039846690804531 0.00031202406090825044
0.6038115621 -0.1003156006 0.00018307535629426034 0.00030857924045227584
0.6091330051 -0.1003156006 0.00021926003948644188 0.00030523165827558155
0.6144544482 -0.1003156006 0.0002569591592694605 0.0003008309931717495
0.6197758913 -0.1003156006 0.0003001619808567057 0.00029700548049854496
0.625097394 -0.1003156006 0.00034288620416934743 0.0002935108492206872
0.6304188371 -0.1003156006 0.00039557756103507504 0.0002905418350730448
0.6357402802 -0.1003156006 0.00044531320985736973 0.00028775101030206865
0.6410617828 -0.1003156006 0.0004983038980892611 0.0002809946219338941
0.6463832259 -0.1003156006 0.0005536224789936854 0.0002730212485311105
0.651704669 -0.1003156006 0.0006104154365103435 0.0002626914775251285
0.6570261121 -0.1003156006 0.0006762162010666668 0.00025007262119945716
0.6623476148 -0.1003156006 0.0007458606298693885 0.0002321319215523636
0.6676690578 -0.1003156006 0.0008190405901130541 0.00021057924360306523
0.6729905009 -0.1003156006 0.000903459855572527 0.00018432926585881058
0.678311944 -0.1003156006 0.0009998580519496045 0.0001557524317910049
0.6836334467 -0.1003156006 0.0011026734107516339 0.00012014297821353028
0.6889548898 -0.1003156006 0.001218685810768082 7.498655892817618e-05
0.6942763329 -0.1003156006 0.0013516318782632645 3.026465177432152e-05
0.6995977759 -0.1003156006 0.0015025316229155445 -1.7821389922493447e-05
0.7049192786 -0.1003156006 0.0016687186994023434 -6.879318066339672e-05
0.7102407217 -0.1003156006 0.0018611538213718463 -0.00012443786767744338
0.7155621648 -0.1003156006 0.0020772230497454773 -0.00017830197924494524
0.7208836079 -0.1003156006 0.002322576424989314 -0.00022774995300881075
0.7262051105 -0.1003156006 0.002591235693764266 -0.0002758846159040063
0.7315265536 -0.1003156006 0.002896473133816851 -0.00031670473762923965
0.7368479967 -0.1003156006 0.0032504532633995664 -0.0003416714507139866
0.7421694398 -0.1003156006 0.003639593096486571 -0.0003525078667263043
0.7474909425 -0.1003156006 0.0040527964648123214 -0.0003322256585508898
0.7528123856 -0.1003156006 0.004527095330864878 -0.00028668661076284945
0.7581338286 -0.1003156006 0.00504178349399507 -0.0002092545849318934
-0.3008363545 -0.09699654579 0.0002601716643902024 1.3757080148074759e-05
-0.2955148816 -0.09699654579 0.000292426434304218 6.268839238478171e-05
-0.2901934385 -0.09699654579 0.0002763904421431676 7.628292115366069e-05
-0.2848719656 -0.09699654579 0.0002807381617391893 8.271859144485837e-05
-0.2795505226 -0.09699654579 0.00029959607495226614 8.706449265426956e-05
-0.2742290497 -0.09699654579 0.00037016104588554827 7.216881210809153e-05
-0.2689076066 -0.09699654579 0.0005141934821962441 4.996508009930932e-05
-0.2635861337 -0.09699654579 0.0005789363772587045 3.850778325737594e-05
-0.2582646906 -0.09699654579 0.00044770798455607153 3.8167804726815555e-05
-0.2529432178 -0.09699654579 0.0003243170926755137 5.763173372339865e-05
-0.2476217598 -0.09699654579 0.00018855847265201707 8.899007363455342e-05
-0.2423003018 -0.09699654579 4.86158347848956e-05 9.999240473232513e-05
-0.2369788438 -0.09699654579 -6.520533003261457e-05 7.747152996065918e-05
-0.2316573858 -0.09699654579 -0.00022212311580402264 5.243193963915818e-05
-0.2263359278 -0.09699654579 -0.0004132871899654341 2.301080998572104e-05
-0.2210144699 -0.09699654579 -0.0003930356901140006 1.2213153053874214e-05
-0.2156930119 -0.09699654579 -0.0003044276100912151 -1.2866862769559098e-06
-0.2103715539 -0.09699654579 -0.00019673084004915653 -5.567233517642097e-05
-0.2050500959 -0.09699654579 -0.00023362604291911503 -0.00010184075351873164
-0.1997286379 -0.09699654579 -0.00034126209796532194 -0.0001287388001292201
-0.19440718 -0.09699654579 -0.0004499108500446893 -0.00014893987293710675
-0.189085722 -0.09699654579 -0.00047420862776519323 -0.0001951157887907922
-0.183764264 -0.09699654579 -0.00046196134517957166 -0.00022055875178331018
-0.178442806 -0.09699654579 -0.00046396255955445805 -0.00021651641521571677
-0.173121348 -0.09699654579 -0.00046007174433524214 -0.0002099361896092871
-0.16779989 -0.09699654579 -0.0004549636670571164 -0.00020778895619111656
-0.1624784321 -0.09699654579 -0.00043764876859582187 -0.0002103650553073767
-0.1571569741 -0.09699654579 -0.00043851316859919577 -0.00018237061940570184
-0.1518355161 -0.09699654579 -0.00043300816303263473 -0.0001574152425435034
-0.1465140581 -0.09699654579 -0.0004233833181156964 -0.0001373156960175429
-0.1411926001 -0.09699654579 -0.000413509135607217 -0.00012233115144436775
-0.1358711421 -0.09699654579 -0.0004100952287734055 -0.00011052830355058614
-0.1305496842 -0.09699654579 -0.0004060306828723825 -9.72527046111212e-05
-0.1252282262 -0.09699654579 -0.0004025031824487179 -8.28387435004045e-05
-0.1199067682 -0.09699654579 -0.00043575784411669315 -5.205169708136616e-05
-0.1145853102 -0.09699654579 -0.00048033691669756583 -2.425451394148895e-05
-0.1092638522 -0.09699654579 -0.0005244979257341554 5.97689634789371e-06
-0.1039423943 -0.09699654579 -0.000566664588146502 3.8233469900781105e-05
-0.09862093627 -0.09699654579 -0.0006005432338784105 4.738357541705227e-05
-0.09329947084 -0.09699654579 -0.0006325077357645396 5.308561252032049e-05
-0.08797801286 -0.09699654579 -0.00066400688848135 5.511087680640032e-05
-0.08265655488 -0.09699654579 -0.0006946866510374777 5.9614473148478095e-05
-0.0773350969 -0.09699654579 -0.00071397480972193 4.881691460026074e-05
-0.07201363891 -0.09699654579 -0.0007333752138975827 3.496047111388884e-05
-0.06669218093 -0.09699654579 -0.0007532546596554481 2.105354472532647e-05
-0.06137072667 -0.09699654579 -0.0007750243775861601 7.101563753918548e-06
-0.05604926869 -0.09699654579 -0.0007889237255109671 -2.5627291752179053e-06
-0.05072781071 -0.09699654579 -0.0007970893564697932 -1.0284168984971041e-05
-0.045406349 -0.09699654579 -0.0008043255752502043 -1.8028716289386427e-05
-0.04008489102 -0.09699654579 -0.0008155926788357393 -2.566305090659776e-05
-0.03476343304 -0.09699654579 -0.0008212762096138932 -3.308001923325483e-05
-0.02944197692 -0.09699654579 -0.0008231630630742072 -3.819289622482942e-05
-0.02412051894 -0.09699654579 -0.0008256205331025775 -4.3427435658103095e-05
-0.01879905909 -0.09699654579 -0.0008263487443970086 -4.85151423613254e-05
-0.01347760204 -0.09699654579 -0.0008314246366805015 -5.3403024246999784e-05
-0.00815614406 -0.09699654579 -0.0008241291192895287 -5.980437685813473e-05
-0.00283468538 -0.09699654579 -0.0008133538468572351 -6.690362587162688e-05
0.002486772602 -0.09699654579 -0.0008026719998245989 -7.49295416134725e-05
0.007808230817 -0.09699654579 -0.0007894541185831617 -8.301400609560217e-05
0.0131296888 -0.09699654579 -0.0007789009300633004 -9.051772602599349e-05
0.01845114678 -0.09699654579 -0.0007674463261398703 -7.80659271507098e-05
0.02377260476 -0.09699654579 -0.0007575392582592866 -5.058948851648826e-05
0.02909406275 -0.09699654579 -0.0007471643366107111 -2.183722064871378e-05
0.03441552073 -0.09699654579 -0.000738497452038637 7.172273378568293e-06
0.03973697871 -0.09699654579 -0.000729172566213499 3.459561694617511e-05
0.04505843669 -0.09699654579 -0.0007320828197483215 5.978370159667236e-05
0.05037989467 -0.09699654579 -0.0007619590457334413 8.381810951569777e-05
0.05570135266 -0.09699654579 -0.0007944819657516014 0.00010819262191336156
0.06102281436 -0.09699654579 -0.0008267958422608784 0.0001342265758949043
0.06634426862 -0.09699654579 -0.0008595332275485821 0.0001578262379734451
0.0716657266 -0.09699654579 -0.0008906573285585606 0.00018148722954627942
0.07698718458 -0.09699654579 -0.0009367845971611769 0.0001554188742524879
0.08230864257 -0.09699654579 -0.0009865811845023887 0.0001263198845676535
0.08763010055 -0.09699654579 -0.001036614291663365 9.779722967280065e-05
0.09295155853 -0.09699654579 -0.00108289668881625 6.957064944008455e-05
0.09827301651 -0.09699654579 -0.0011306169702309393 4.108026903306392e-05
0.1035944745 -0.09699654579 -0.001157842661674218 1.4231808012298578e-06
0.1089159325 -0.09699654579 -0.0011545993911578072 -5.745166285111665e-05
0.1142373979 -0.09699654579 -0.001150669540038499 -0.0001143155207255729
0.1195588559 -0.09699654579 -0.001145939048137584 -0.00016945776895540724
0.1248803139 -0.09699654579 -0.00114173700102558 -0.00022465327632695018
0.1302017719 -0.09699654579 -0.0011373362146238231 -0.0002812387021598946
0.1355232298 -0.09699654579 -0.0011027209578436138 -0.00031247426834772607
0.1408446878 -0.09699654579 -0.001047643866803251 -0.0003269875004570511
0.1461661458 -0.09699654579 -0.0009980574988852785 -0.000341212956216261
0.1514876038 -0.09699654579 -0.0009455491052048156 -0.0003554154441183673
0.1568090618 -0.09699654579 -0.0008953955290809832 -0.0003696022519718921
0.1621305197 -0.09699654579 -0.0008457222205284878 -0.0003854016250552628
0.1674519777 -0.09699654579 -0.0008162246801964418 -0.0003673548971938573
0.1727734357 -0.09699654579 -0.0007957429537321795 -0.00033656853166863136
0.1780948937 -0.09699654579 -0.000775319032515979 -0.00030382397034667464
0.1834163517 -0.09699654579 -0.0007535576689227767 -0.0002719052438731426
0.1887378097 -0.09699654579 -0.0007340868037796288 -0.00024402077357986378
0.1940592676 -0.09699654579 -0.0007117809317228724 -0.00021609260114647275
0.1993807256 -0.09699654579 -0.0007075092354684571 -0.00020303287107637403
0.2047021836 -0.09699654579 -0.0007121630350801958 -0.0001945205175054777
0.2100236416 -0.09699654579 -0.0007092839784545069 -0.00018259164088600723
0.2153450996 -0.09699654579 -0.0007094534021137249 -0.0001709008954790471
0.2206665576 -0.09699654579 -0.0007113475166650172 -0.0001590856147104986
0.2259880155 -0.09699654579 -0.000709498363396396 -0.0001472728479069269
0.2313094735 -0.09699654579 -0.0006998947102575989 -0.00012195796434902361
0.2366309315 -0.09699654579 -0.0006884172503902661 -9.211937687544377e-05
0.2419523895 -0.09699654579 -0.0006796163777601726 -6.226199468667259e-05
0.2472738475 -0.09699654579 -0.0006689569575144033 -3.23477557749344e-05
0.2525953054 -0.09699654579 -0.0006592551672223614 -4.236494688575967e-06
0.2579167783 -0.09699654579 -0.0006494574930714284 2.2812894436444717e-05
0.2632382214 -0.09699654579 -0.0006834825170440694 4.753753314952056e-05
0.2685596943 -0.09699654579 -0.0007272261436896113 7.208962101467277e-05
0.2738811374 -0.09699654579 -0.0007668143479609378 9.49092074410824e-05
0.2792026103 -0.09699654579 -0.0008061724342173614 0.00011664912755094894
0.2845240533 -0.09699654579 -0.0008411980661082928 0.000138140814245642
0.2898455262 -0.09699654579 -0.0008839593071552947 0.00016082891037068762
0.2951669693 -0.09699654579 -0.000903443126768961 0.00011870309614157875
0.3004884422 -0.09699654579 -0.0009195768772882616 7.446598628777694e-05
0.3058098853 -0.09699654579 -0.0009425446701961783 2.9813434602194694e-05
0.3111313581 -0.09699654579 -0.0009658149495604262 -1.4966502221629401e-05
0.3164528012 -0.09699654579 -0.0009845296676724955 -5.704882941598175e-05
0.3217742741 -0.09699654579 -0.00099876706211869 -9.197223717344793e-05
0.3270957172 -0.09699654579 -0.0009337857968852464 -9.904859954400439e-05
0.3324171901 -0.09699654579 -0.0008701322647106614 -0.00010598119947055826
0.3377386332 -0.09699654579 -0.0008082541329856086 -0.00011252307022569233
0.343060106 -0.09699654579 -0.0007477646759295374 -0.00011845620426991358
0.3483815491 -0.09699654579 -0.0006909969430734441 -0.0001245471173009479
0.353703022 -0.09699654579 -0.0006453411791717765 -0.00010311978077040498
0.3590244651 -0.09699654579 -0.0006304962732011698 -3.3293192548969785e-05
0.364345938 -0.09699654579 -0.0006157499166502578 2.9994943151633172e-05
0.369667381 -0.09699654579 -0.0005985281222868272 9.328028549224027e-05
0.3749888539 -0.09699654579 -0.0005848422989713655 0.00015695882153219135
0.380310297 -0.09699654579 -0.0005694306008388701 0.00021554981114615387
0.3856317699 -0.09699654579 -0.0006133986081177848 0.00023505924303671505
0.390953213 -0.09699654579 -0.0006765835216419056 0.0002453762297946894
0.3962746859 -0.09699654579 -0.0007435040108799507 0.0002568047300077743
0.4015961289 -0.09699654579 -0.0008016062588946905 0.0002667807098680801
0.4069176018 -0.09699654579 -0.0008563890200277126 0.0002753718907313233
0.4122390449 -0.09699654579 -0.0008986286832652148 0.0002497125844058033
0.4175605178 -0.09699654579 -0.0009234633467080061 0.0001784735546059439
0.4228819609 -0.09699654579 -0.0009413592930335447 0.00011680395111005886
0.4282034338 -0.09699654579 -0.000956202160034928 5.711338015446129e-05
0.4335248768 -0.09699654579 -0.0009731308150113829 -2.951723565660607e-06
0.4388463497 -0.09699654579 -0.0009658012767749961 -6.325335273424023e-05
0.4441677928 -0.09699654579 -0.0008953614339064829 -0.00010608765524943524
0.4494892657 -0.09699654579 -0.0008257675250471859 -0.00014825791137294215
0.4548107088 -0.09699654579 -0.000753542543740289 -0.0001901182594294087
0.4601321816 -0.09699654579 -0.0006833307582103619 -0.00023100491515456136
0.4654536247 -0.09699654579 -0.0006129942626953541 -0.00024405639789114382
0.4707750976 -0.09699654579 -0.0005273186896537576 -0.00022375983437807444
0.4760965407 -0.09699654579 -0.0004403291632853207 -0.0002024742897316099
0.4814180136 -0.09699654579 -0.00035629377937796477 -0.0001825932022183078
0.4867394567 -0.09699654579 -0.00027657492344842214 -0.00016353356446218125
0.4920609295 -0.09699654579 -0.00022342539035327758 -0.00011824285423323235
0.4973823726 -0.09699654579 -0.00017637579220859318 -6.62827872291669e-05
0.5027038455 -0.09699654579 -0.0001305529498665624 -1.8601310998337587e-05
0.5080252886 -0.09699654579 -8.710437606147996e-05 3.110275567508203e-05
0.5133467317 -0.09699654579 -6.063765571693783e-05 7.850629340598577e-05
0.5186682343 -0.09699654579 -5.1048560266957926e-05 0.0001221578192473721
0.5239896774 -0.09699654579 -3.840761980553948e-05 0.00016213167574190594
0.5293111205 -0.09699654579 -2.80398642318445e-05 0.00020406300827536053
0.5346325636 -0.09699654579 -2.4070913593567275e-05 0.0002367807500327451
0.5399540663 -0.09699654579 -2.189444043123289e-05 0.0002564238783883438
0.5452755094 -0.09699654579 -2.062204086376702e-05 0.00027595898716384094
0.5505969524 -0.09699654579 -2.0578948362639513e-05 0.0002954483037087376
0.5559183955 -0.09699654579 -1.5261316743741016e-05 0.00030220063743248784
0.5612398982 -0.09699654579 -5.086533142293822e-06 0.00030609010360261674
0.5665613413 -0.09699654579 7.230765397873958e-06 0.0003097124100170095
0.5718827844 -0.09699654579 1.8926612465196453e-05 0.0003089603363055068
0.5772042274 -0.09699654579 3.748185496499298e-05 0.0003061849166179735
0.5825257301 -0.09699654579 5.6616438572328276e-05 0.00030315898829132946
0.5878471732 -0.09699654579 8.184107302746959e-05 0.0002987346777497158
0.5931686163 -0.09699654579 0.00011064446524365731 0.0002953070880243139
0.5984900594 -0.09699654579 0.00014227675407435959 0.0002913076109456943
0.6038115621 -0.09699654579 0.00017955666295374335 0.0002868894065449558
0.6091330051 -0.09699654579 0.0002162769057791961 0.0002810416428016925
0.6144544482 -0.09699654579 0.0002543531467085049 0.00027628850154073854
0.6197758913 -0.09699654579 0.00029798720361335794 0.00027032370814301547
0.625097394 -0.09699654579 0.0003452542447822333 0.0002652100586673818
0.6304188371 -0.09699654579 0.0003924073616564409 0.0002602120237753287
0.6357402802 -0.09699654579 0.00044194678110720515 0.0002541097717775711
0.6410617828 -0.09699654579 0.0004917258299203253 0.0002479782409330082
0.6463832259 -0.09699654579 0.0005470564479122516 0.00023780207552111615
0.651704669 -0.09699654579 0.0006054612267205953 0.0002257445102842383
0.6570261121 -0.09699654579 0.0006706012101900883 0.0002088940400970432
0.6623476148 -0.09699654579 0.0007387328851927419 0.00018900397432241255
0.6676690578 -0.09699654579 0.000807243954640962 0.00016254840395659174
0.6729905009 -0.09699654579 0.0008890176637233443 0.00013166777914181392
0.678311944 -0.09699654579 0.0009785802457421963 9.40269871984669e-05
0.6836334467 -0.09699654579 0.001076882698056302 5.1015176796327766e-05
0.6889548898 -0.09699654579 0.0011888799299862125 1.859811451283256e-06
0.6942763329 -0.09699654579 0.0013177894106430486 -5.2267791862219946e-05
0.6995977759 -0.09699654579 0.0014642428107102265 -0.00011512539693583439
0.7049192786 -0.09699654579 0.0016278280953952366 -0.00017970280872446682
0.7102407217 -0.09699654579 0.0018202457337508989 -0.00024717543904482456
0.7155621648 -0.09699654579 0.002041100396965808 -0.0003175168221090809
0.7208836079 -0.09699654579 0.0022895570069053303 -0.00039289108264845533
0.7262051105 -0.09699654579 0.002569875959682532 -0.000462835389700166
0.7315265536 -0.09699654579 0.002880978371143857 -0.0005241645569834341
0.7368479967 -0.09699654579 0.0032341424659446012 -0.000575470198391113
0.7421694398 -0.09699654579 0.00363361400515003 -0.0006067780476892715
0.7474909425 -0.09699654579 0.0040752219248117024 -0.000623211845487398
0.7528123856 -0.09699654579 0.004566850247584785 -0.0006018635646427806
0.7581338286 -0.09699654579 0.005100289494070828 -0.0005452764857581561
-0.3008363545 -0.09367749095 0.0002579399992185688 2.5254813011365362e-05
-0.2955148816 -0.09367749095 0.00025253726652819936 8.362378206942218e-05
-0.2901934385 -0.09367749095 0.0002601685525692859 0.0001004311765220719
-0.2848719656 -0.09367749095 0.00023737630700501605 0.00010693318800405903
-0.2795505226 -0.09367749095 0.0002673944810469168 0.00010693485040634374
-0.2742290497 -0.09367749095 0.00031331897211813717 7.610025403461526e-05
-0.2689076066 -0.09367749095 0.0004141051779817338 5.037381587246737e-05