VARIABLES = X,Y,phix,phiy
ZONE I=200,J=200,F=POINT 
-0.3008363545 -0.1003156006 -0.0006747568702226937 0.000601495818484888
-0.2955148816 -0.1003156006 -0.0007093357079868782 0.0006346665392375806
-0.2901934385 -0.1003156006 -0.0008049302803932607 0.0006898998427771761
-0.2848719656 -0.1003156006 -0.0009156191589281487 0.0007516474829699901
-0.2795505226 -0.1003156006 -0.0010328081935338774 0.0008113610987013825
-0.2742290497 -0.1003156006 -0.0012112144737152432 0.000845077446035798
-0.2689076066 -0.1003156006 -0.0014235489934719043 0.0008310711046981065
-0.2635861337 -0.1003156006 -0.0015008655650129016 0.0007561836178630082
-0.2582646906 -0.1003156006 -0.0015173535751709728 0.0007410145133081578
-0.2529432178 -0.1003156006 -0.001550265356145521 0.0007269490290627501
-0.2476217598 -0.1003156006 -0.0015673446582733668 0.00062505512840119
-0.2423003018 -0.1003156006 -0.0015298273656121073 0.00043756562048974254
-0.2369788438 -0.1003156006 -0.0014483347161694765 0.0003379615524776791
-0.2316573858 -0.1003156006 -0.0013059181073079194 0.00026326924666013953
-0.2263359278 -0.1003156006 -0.0011763585075248544 0.00023684963986345827
-0.2210144699 -0.1003156006 -0.0011549165483965642 0.0002349711271364772
-0.2156930119 -0.1003156006 -0.0011192902942038512 0.0002374574789315695
-0.2103715539 -0.1003156006 -0.001102146656754864 0.00024761599840919995
-0.2050500959 -0.1003156006 -0.0010772812669629722 0.0002676341444257922
-0.1997286379 -0.1003156006 -0.001053498200707743 0.00030180625428796184
-0.19440718 -0.1003156006 -0.0010525093806761652 0.00034590298403458503
-0.189085722 -0.1003156006 -0.0010625738448505131 0.0003559518072340376
-0.183764264 -0.1003156006 -0.0010714837847280922 0.00035440308148089526
-0.178442806 -0.1003156006 -0.0010771930456365507 0.00035838749190197255
-0.173121348 -0.1003156006 -0.0010483891798448246 0.00030684403650885564
-0.16779989 -0.1003156006 -0.0010235612379786987 0.00025607083729906554
-0.1624784321 -0.1003156006 -0.0009873638170285045 0.00018546354155337714
-0.1571569741 -0.1003156006 -0.0009466070755195218 0.00013387089591605124
-0.1518355161 -0.1003156006 -0.0009109375103594763 9.696637684536884e-05
-0.1465140581 -0.1003156006 -0.0008772387393573806 6.186078320632055e-05
-0.1411926001 -0.1003156006 -0.0008412832927168857 2.7608521620376274e-05
-0.1358711421 -0.1003156006 -0.0008022249171355637 -9.020462220763802e-06
-0.1305496842 -0.1003156006 -0.0007606576970248341 -4.546242464836327e-05
-0.1252282262 -0.1003156006 -0.0007090914606390388 -8.212008788497422e-05
-0.1199067682 -0.1003156006 -0.0006571322774227322 -0.00011158787287515033
-0.1145853102 -0.1003156006 -0.0006078254834325022 -0.00013894536358889225
-0.1092638522 -0.1003156006 -0.0005467316551920145 -0.0001595023424504088
-0.1039423943 -0.1003156006 -0.0004954672372143257 -0.00017979528987007112
-0.09862093627 -0.1003156006 -0.00047033733777358534 -0.00016955896055865615
-0.09329947084 -0.1003156006 -0.00044935350323039767 -0.0001594266538341185
-0.08797801286 -0.1003156006 -0.00042635999113224736 -0.0001494744440618872
-0.08265655488 -0.1003156006 -0.00040930658345736105 -0.00014090387167283298
-0.0773350969 -0.1003156006 -0.00038501068230638893 -0.0001539335153636101
-0.07201363891 -0.1003156006 -0.00035628688244877853 -0.00016683646470424106
-0.06669218093 -0.1003156006 -0.00033153446822141783 -0.0001797839464731627
-0.06137072667 -0.1003156006 -0.00030772387719586573 -0.0001960644814274608
-0.05604926869 -0.1003156006 -0.0002777530493379456 -0.0002014187687235849
-0.05072781071 -0.1003156006 -0.00025198213835120174 -0.00020484516631963544
-0.045406349 -0.1003156006 -0.00022772739734436354 -0.00020851926453090082
-0.04008489102 -0.1003156006 -0.00020079501802080214 -0.0002114591033012109
-0.03476343304 -0.1003156006 -0.00017887341866107854 -0.00020731872398483734
-0.02944197692 -0.1003156006 -0.00017687620308327884 -0.0001894973190857369
-0.02412051894 -0.1003156006 -0.00017224660905761527 -0.00017055524527077753
-0.01879905909 -0.1003156006 -0.0001699008674539161 -0.00015047624692875422
-0.01347760204 -0.1003156006 -0.0001681274156282919 -0.00013171498068572063
-0.00815614406 -0.1003156006 -0.00017485775639597618 -0.00011582327840873592
-0.00283468538 -0.1003156006 -0.00018293832724118936 -0.00010266443156045014
0.002486772602 -0.1003156006 -0.00019325670591506755 -8.817971155929929e-05
0.007808230817 -0.1003156006 -0.00020529061311941581 -7.366136278155604e-05
0.0131296888 -0.1003156006 -0.00021522834195701805 -6.0269668871944134e-05
0.01845114678 -0.1003156006 -0.00021959052132409655 -6.385612371613081e-05
0.02377260476 -0.1003156006 -0.0002195376075102774 -8.093736946888488e-05
0.02909406275 -0.1003156006 -0.0002201744253564856 -9.941368786026558e-05
0.03441552073 -0.1003156006 -0.00022264706887296644 -0.00011793410172680592
0.03973697871 -0.1003156006 -0.0002224736724423463 -0.0001351655517736583
0.04505843669 -0.1003156006 -0.0002156642842801587 -0.00014680707037391727
0.05037989467 -0.1003156006 -0.00019063049253354033 -0.0001526581337078568
0.05570135266 -0.1003156006 -0.0001667372683774532 -0.00015896054465956274
0.06102281436 -0.1003156006 -0.0001430963057135177 -0.00016549192839197935
0.06634426862 -0.1003156006 -0.00011745466549347703 -0.00017152305277036997
0.0716657266 -0.1003156006 -9.325088907010019e-05 -0.0001772045403258204
0.07698718458 -0.1003156006 -6.196077501310309e-05 -0.0001691322159115921
0.08230864257 -0.1003156006 -2.955422938921164e-05 -0.00016022585169982487
0.08763010055 -0.1003156006 3.8640211857923916e-06 -0.00015220985362233885
0.09295155853 -0.1003156006 3.612631380236737e-05 -0.00014341252318466173
0.09827301651 -0.1003156006 6.563446537126717e-05 -0.00013406908668657503
0.1035944745 -0.1003156006 8.622862877146265e-05 -0.00010683304067599969
0.1089159325 -0.1003156006 8.869940139184211e-05 -4.4273228966329906e-05
0.1142373979 -0.1003156006 9.092235214476701e-05 1.8297060312960075e-05
0.1195588559 -0.1003156006 9.20948475504077e-05 7.8996132160159e-05
0.1248803139 -0.1003156006 8.975089733993178e-05 0.00014060955152683444
0.1302017719 -0.1003156006 9.301901045185337e-05 0.0002023334391959239
0.1355232298 -0.1003156006 8.792312347209746e-05 0.0002611139685002265
0.1408446878 -0.1003156006 7.509746570398578e-05 0.0003173151767875916
0.1461661458 -0.1003156006 6.593776014954479e-05 0.0003723601928802193
0.1514876038 -0.1003156006 5.658203907945579e-05 0.0004273484826147301
0.1568090618 -0.1003156006 4.5610595225262286e-05 0.00048244554025393276
0.1621305197 -0.1003156006 3.36247261694727e-05 0.0005373051032018446
0.1674519777 -0.1003156006 1.3260781716317869e-05 0.0005542933494457372
0.1727734357 -0.1003156006 -1.0954009097220141e-05 0.0005569048911821594
0.1780948937 -0.1003156006 -3.485617766393572e-05 0.000559389661990757
0.1834163517 -0.1003156006 -6.192307381917467e-05 0.000561991643964207
0.1887378097 -0.1003156006 -8.375310542446397e-05 0.0005620878444437433
0.1940592676 -0.1003156006 -0.00011021697021371554 0.0005577819039451797
0.1993807256 -0.1003156006 -0.00014143418806728013 0.0005650497711560335
0.2047021836 -0.1003156006 -0.00017895552832573522 0.0005759641712667688
0.2100236416 -0.1003156006 -0.00021341926237759972 0.000586857695186051
0.2153450996 -0.1003156006 -0.0002446231938620672 0.000589326190580439
0.2206665576 -0.1003156006 -0.0002759809761164707 0.0005946620333296731
0.2259880155 -0.1003156006 -0.0003055948617522787 0.0005997491704478058
0.2313094735 -0.1003156006 -0.00035243842323778873 0.0005786060800740999
0.2366309315 -0.1003156006 -0.00040312737116960707 0.0005559731822522695
0.2419523895 -0.1003156006 -0.00045544299047806856 0.0005363675363556594
0.2472738475 -0.1003156006 -0.0005056728557132209 0.0005190403908403858
0.2525953054 -0.1003156006 -0.0005617221155325845 0.000511359514899411
0.2579167783 -0.1003156006 -0.0006127044929071911 0.0005020966656396321
0.2632382214 -0.1003156006 -0.0006259332137552528 0.0004651704728743045
0.2685596943 -0.1003156006 -0.0006265340899704015 0.0004204565945090389
0.2738811374 -0.1003156006 -0.0006234870382546957 0.000373993661418779
0.2792026103 -0.1003156006 -0.0006273853974914721 0.0003289133886206561
0.2845240533 -0.1003156006 -0.0006272011472431641 0.00028870260335069455
0.2898455262 -0.1003156006 -0.0006270398291792095 0.00024880184741953433
0.2951669693 -0.1003156006 -0.0005894898769283848 0.00024230142671057857
0.3004884422 -0.1003156006 -0.0005456481452900015 0.00024087286951734178
0.3058098853 -0.1003156006 -0.0005049233227381301 0.00023792273593700115
0.3111313581 -0.1003156006 -0.0004651417789471963 0.00023468824485919267
0.3164528012 -0.1003156006 -0.00042605716167348854 0.00023170383032497426
0.3217742741 -0.1003156006 -0.00038444768594928305 0.0002300132028367178
0.3270957172 -0.1003156006 -0.0003844372022902499 0.0002523974194611998
0.3324171901 -0.1003156006 -0.0003832767318467614 0.0002747908416423257
0.3377386332 -0.1003156006 -0.0003840130263612346 0.00029711243939464153
0.343060106 -0.1003156006 -0.00038021479521463565 0.0003192235268336972
0.3483815491 -0.1003156006 -0.00038096820813050234 0.0003383204997865146
0.353703022 -0.1003156006 -0.0003807378113476002 0.00035635233995346647
0.3590244651 -0.1003156006 -0.00039922675988273733 0.000373277376810866
0.364345938 -0.1003156006 -0.0004116597795436583 0.0003900562362015304
0.369667381 -0.1003156006 -0.0004231045260279427 0.0004064418393956039
0.3749888539 -0.1003156006 -0.00043679507111030506 0.00042294940942991325
0.380310297 -0.1003156006 -0.0004497714757531097 0.000439308955904601
0.3856317699 -0.1003156006 -0.0004704528012421722 0.000457409888863202
0.390953213 -0.1003156006 -0.0004895386516149833 0.0004745363200097958
0.3962746859 -0.1003156006 -0.0005071622222176066 0.0004908292121444984
0.4015961289 -0.1003156006 -0.0005304343151364032 0.0005075890630861969
0.4069176018 -0.1003156006 -0.000556006334211203 0.000524874025583877
0.4122390449 -0.1003156006 -0.0005807882515119262 0.0005375622420782358
0.4175605178 -0.1003156006 -0.0006106149995052542 0.0005458628371149522
0.4228819609 -0.1003156006 -0.0006394027771060753 0.0005537221629117461
0.4282034338 -0.1003156006 -0.0006705702061871393 0.000562005005820581
0.4335248768 -0.1003156006 -0.0006990057450630646 0.0005698544695065068
0.4388463497 -0.1003156006 -0.0007280295596917255 0.0005736494699411396
0.4441677928 -0.1003156006 -0.0007487110220808164 0.000568689816273327
0.4494892657 -0.1003156006 -0.0007752222996569152 0.0005632787714565222
0.4548107088 -0.1003156006 -0.0007999413138947914 0.000559549718609109
0.4601321816 -0.1003156006 -0.0008215127341066972 0.0005550468923656559
0.4654536247 -0.1003156006 -0.0008390728302049918 0.0005513049352245584
0.4707750976 -0.1003156006 -0.0008457075544061546 0.0005485438726677583
0.4760965407 -0.1003156006 -0.0008597388882101745 0.0005473708537292975
0.4814180136 -0.1003156006 -0.0008695602908255737 0.0005458732698594452
0.4867394567 -0.1003156006 -0.0008806517118614027 0.0005440665656343347
0.4920609295 -0.1003156006 -0.0008864477681510941 0.0005540867720218344
0.4973823726 -0.1003156006 -0.0008895634195681982 0.000567215327499127
0.5027038455 -0.1003156006 -0.000892055606053064 0.0005803492334578578
0.5080252886 -0.1003156006 -0.0008952271605637446 0.0005933783403280047
0.5133467317 -0.1003156006 -0.0008968116047781547 0.000608803826996053
0.5186682343 -0.1003156006 -0.0009064809411887955 0.0006281734548106823
0.5239896774 -0.1003156006 -0.0009155637077376929 0.0006466398341227422
0.5293111205 -0.1003156006 -0.0009222299808896434 0.0006657068162109706
0.5346325636 -0.1003156006 -0.000929168457928238 0.000684191362455991
0.5399540663 -0.1003156006 -0.0009376677714380059 0.0007023070509490299
0.5452755094 -0.1003156006 -0.0009468440244371825 0.0007204989225303768
0.5505969524 -0.1003156006 -0.0009529213024678467 0.0007391993283049381
0.5559183955 -0.1003156006 -0.000956867722108666 0.0007597959998224506
0.5612398982 -0.1003156006 -0.0009635499590121566 0.0007789608317518379
0.5665613413 -0.1003156006 -0.0009690961674659778 0.000797946875960078
0.5718827844 -0.1003156006 -0.0009707271087090973 0.0008202159178223051
0.5772042274 -0.1003156006 -0.0009697344591658003 0.0008436792870054391
0.5825257301 -0.1003156006 -0.0009750888549715501 0.0008674812423611345
0.5878471732 -0.1003156006 -0.0009773211022596974 0.0008910994845238335
0.5931686163 -0.1003156006 -0.000980619598665967 0.0009159894114168664
0.5984900594 -0.1003156006 -0.0009817702391443901 0.0009416859652290138
0.6038115621 -0.1003156006 -0.0009896586411560068 0.0009655428938642636
0.6091330051 -0.1003156006 -0.0009918006773673058 0.0009891174114998954
0.6144544482 -0.1003156006 -0.0010006635147576754 0.0010101333430217563
0.6197758913 -0.1003156006 -0.0010081749035755292 0.0010300469525514311
0.625097394 -0.1003156006 -0.0010175456217152883 0.0010465762248471524
0.6304188371 -0.1003156006 -0.0010289880487635715 0.0010585654781704733
0.6357402802 -0.1003156006 -0.0010331159341209785 0.0010696871420802286
0.6410617828 -0.1003156006 -0.001038726764261812 0.001077791883348609
0.6463832259 -0.1003156006 -0.0010411796247077184 0.001081481739610074
0.651704669 -0.1003156006 -0.001042775941278252 0.0010828894493076237
0.6570261121 -0.1003156006 -0.0010398962004587447 0.0010826249701194682
0.6623476148 -0.1003156006 -0.0010329979276826086 0.0010788787356129908
0.6676690578 -0.1003156006 -0.0010237731916195884 0.0010719301079473804
0.6729905009 -0.1003156006 -0.0010102304435077936 0.0010601228500306931
0.678311944 -0.1003156006 -0.0009903930416833972 0.0010482558360822563
0.6836334467 -0.1003156006 -0.0009651964081985004 0.001033082148486535
0.6889548898 -0.1003156006 -0.0009289844215331922 0.0010117270395679902
0.6942763329 -0.1003156006 -0.0008832905721705102 0.000991132863156988
0.6995977759 -0.1003156006 -0.0008326325624277187 0.0009680813497248747
0.7049192786 -0.1003156006 -0.0007741273112716226 0.0009422392987045391
0.7102407217 -0.1003156006 -0.0006995442622322047 0.0009138753360669587
0.7155621648 -0.1003156006 -0.0006123213027639973 0.0008840322207644392
0.7208836079 -0.1003156006 -0.0005141329706462148 0.0008550529218263351
0.7262051105 -0.1003156006 -0.00040202960984961247 0.0008261428886769125
0.7315265536 -0.1003156006 -0.00026611140683963514 0.000798879666369822
0.7368479967 -0.1003156006 -0.00010598082327516504 0.0007790103809487896
0.7421694398 -0.1003156006 7.638841126982263e-05 0.0007637018089269523
0.7474909425 -0.1003156006 0.00026836164866074133 0.0007629458336599963
0.7528123856 -0.1003156006 0.0004905967673692477 0.0007789152533181115
0.7581338286 -0.1003156006 0.0007420186560042611 0.0008050901082248305
-0.3008363545 -0.09699654579 -0.0007454648249063629 0.0006552222593491359
-0.2955148816 -0.09699654579 -0.0007588761687808283 0.0006721736704289192
-0.2901934385 -0.09699654579 -0.0008268097514258194 0.0007288415681736089
-0.2848719656 -0.09699654579 -0.0009374855856162576 0.0007897578711280763
-0.2795505226 -0.09699654579 -0.0010279870904916766 0.0008504128905240302
-0.2742290497 -0.09699654579 -0.001191973381132931 0.0008759407568448641
-0.2689076066 -0.09699654579 -0.0014357733761248626 0.0008321762830973173
-0.2635861337 -0.09699654579 -0.0016057240086419572 0.0008168490023639863
-0.2582646906 -0.09699654579 -0.0016062332934281339 0.0008237190337646757
-0.2529432178 -0.09699654579 -0.0016091951795143729 0.0007646475829584039
-0.2476217598 -0.09699654579 -0.0016299127687557724 0.0005533474212122235
-0.2423003018 -0.09699654579 -0.0016108854102203428 0.00033588317913093105
-0.2369788438 -0.09699654579 -0.0014720244209058845 0.00022915784261501304
-0.2316573858 -0.09699654579 -0.0013269476891280556 0.0001809885194953376
-0.2263359278 -0.09699654579 -0.0011201630597559638 0.00017381932761772862
-0.2210144699 -0.09699654579 -0.0010495663192486794 0.00016860896636457896
-0.2156930119 -0.09699654579 -0.0010320788794058956 0.00018398392434536485
-0.2103715539 -0.09699654579 -0.0010188138220668472 0.0002237346716800833
-0.2050500959 -0.09699654579 -0.0009883778470406422 0.00026474360893062615
-0.1997286379 -0.09699654579 -0.0009900248809597298 0.00030906088558748176
-0.19440718 -0.09699654579 -0.0009989121614708844 0.0003656679143505351
-0.189085722 -0.09699654579 -0.0009927973842565787 0.0004044847612077745
-0.183764264 -0.09699654579 -0.0009944226960834279 0.00040357424690311424
-0.178442806 -0.09699654579 -0.000990357719855798 0.00036558277805035926
-0.173121348 -0.09699654579 -0.0009647980585334302 0.0003108210319726266
-0.16779989 -0.09699654579 -0.000925323361537909 0.00023222879197926647
-0.1624784321 -0.09699654579 -0.0008992134956056235 0.00015507765395624538
-0.1571569741 -0.09699654579 -0.0008743083442874505 9.593901938279724e-05
-0.1518355161 -0.09699654579 -0.0008584831939015884 6.117533085546539e-05
-0.1465140581 -0.09699654579 -0.000847435825458363 2.5277247313775777e-05
-0.1411926001 -0.09699654579 -0.000826556142100059 -1.0048874517770909e-05
-0.1358711421 -0.09699654579 -0.0007767216018561549 -4.687775416447214e-05
-0.1305496842 -0.09699654579 -0.0007209260596826507 -8.386497732436934e-05
-0.1252282262 -0.09699654579 -0.0006740582329445601 -0.00011970116122255314
-0.1199067682 -0.09699654579 -0.0006278469526515639 -0.00014272253190398133
-0.1145853102 -0.09699654579 -0.0005841062918795285 -0.00016252755493613465
-0.1092638522 -0.09699654579 -0.0005397720684849632 -0.00017934231883607406
-0.1039423943 -0.09699654579 -0.0005017559866846928 -0.00018813196653481623
-0.09862093627 -0.09699654579 -0.0004956410262936885 -0.00017881734131200208
-0.09329947084 -0.09699654579 -0.0004890151617905536 -0.00016863453040929661
-0.08797801286 -0.09699654579 -0.000493838056458265 -0.00015782709213196382
-0.08265655488 -0.09699654579 -0.0004879349756734345 -0.0001483717523832646
-0.0773350969 -0.09699654579 -0.00046019312922787077 -0.00016554890849786256
-0.07201363891 -0.09699654579 -0.00042992622260149715 -0.00018499964959013676
-0.06669218093 -0.09699654579 -0.00040325757169872885 -0.0002041507942648961
-0.06137072667 -0.09699654579 -0.00037496029006030306 -0.0002217932832895789
-0.05604926869 -0.09699654579 -0.0003484650817339176 -0.00022447001464518206
-0.05072781071 -0.09699654579 -0.00032234657867500537 -0.00022479380844906273
-0.045406349 -0.09699654579 -0.00029595557009906456 -0.0002251423823169819
-0.04008489102 -0.09699654579 -0.0002704151313238974 -0.0002251728584255034
-0.03476343304 -0.09699654579 -0.00024684643924801145 -0.0002174715709869234
-0.02944197692 -0.09699654579 -0.00024423352746731863 -0.0001953693318365177
-0.02412051894 -0.09699654579 -0.00024083319514803258 -0.00017334073188697024
-0.01879905909 -0.09699654579 -0.0002379689723279877 -0.0001512914395648428
-0.01347760204 -0.09699654579 -0.00023546967624563602 -0.00012938228307697756
-0.00815614406 -0.09699654579 -0.00024040188738815087 -0.00011102037372969598
-0.00283468538 -0.09699654579 -0.00025094987575724546 -9.58427454207464e-05
0.002486772602 -0.09699654579 -0.000260862851965653 -8.045825888746148e-05
0.007808230817 -0.09699654579 -0.000273523655646357 -6.509308257233357e-05
0.0131296888 -0.09699654579 -0.00028355710534799095 -4.988508450080606e-05
0.01845114678 -0.09699654579 -0.00029045652007456314 -5.513331054004215e-05
0.02377260476 -0.09699654579 -0.0002900956788093583 -7.593998767882483e-05
0.02909406275 -0.09699654579 -0.00028863948996199213 -9.793081937694422e-05
0.03441552073 -0.09699654579 -0.00028493836035077785 -0.0001202130552909848
0.03973697871 -0.09699654579 -0.00028681110547675715 -0.00014091067476147828
0.04505843669 -0.09699654579 -0.0002784691748056766 -0.00015557409384657636
0.05037989467 -0.09699654579 -0.00025384323431733964 -0.00016306303117284961
0.05570135266 -0.09699654579 -0.0002302823485389122 -0.00017048403038475194
0.06102281436 -0.09699654579 -0.00020276224412912872 -0.00017846703965212205
0.06634426862 -0.09699654579 -0.00017978513006151013 -0.00018578696384088212
0.0716657266 -0.09699654579 -0.00015535565810557652 -0.00019314140665630683
0.07698718458 -0.09699654579 -0.00011675307980451673 -0.00018575184123189966
0.08230864257 -0.09699654579 -7.619413931430568e-05 -0.00017785558551866747
0.08763010055 -0.09699654579 -3.9128506752201e-05 -0.00017013524751016554
0.09295155853 -0.09699654579 -1.439933636657791e-06 -0.00016224881233290633
0.09827301651 -0.09699654579 3.780165225764898e-05 -0.0001544876961555258
0.1035944745 -0.09699654579 6.058805093130495e-05 -0.0001264815244358319
0.1089159325 -0.09699654579 6.735628558827456e-05 -6.196130808888313e-05
0.1142373979 -0.09699654579 6.785092099368715e-05 1.8702879771047068e-06
0.1195588559 -0.09699654579 6.544575717338747e-05 6.504678392931256e-05
0.1248803139 -0.09699654579 6.560892135210927e-05 0.00012827100767556903
0.1302017719 -0.09699654579 7.036257666646717e-05 0.00019205227413635954
0.1355232298 -0.09699654579 5.497828716963204e-05 0.00025295797079378797
0.1408446878 -0.09699654579 4.4070230434186594e-05 0.0003092846877424789
0.1461661458 -0.09699654579 3.0337070535779113e-05 0.00036567130638922684
0.1514876038 -0.09699654579 1.7067780032693793e-05 0.00042293024320765586
0.1568090618 -0.09699654579 9.268600459283397e-06 0.00048023362536235006
0.1621305197 -0.09699654579 -3.011272211140436e-06 0.0005369648794436948
0.1674519777 -0.09699654579 -2.3878278051437093e-05 0.0005612071512306823
0.1727734357 -0.09699654579 -4.784483182319281e-05 0.0005743321264154174
0.1780948937 -0.09699654579 -7.403961355524214e-05 0.0005916317706091516
0.1834163517 -0.09699654579 -9.855262454366903e-05 0.000607377503061155
0.1887378097 -0.09699654579 -0.0001215544877939404 0.0006152813020456069
0.1940592676 -0.09699654579 -0.0001465639935828048 0.0006231838684794154
0.1993807256 -0.09699654579 -0.00018381541208321574 0.0006439659342259952
0.2047021836 -0.09699654579 -0.00022835833479913317 0.0006680824870461862
0.2100236416 -0.09699654579 -0.0002671462802575187 0.0006848270548834272
0.2153450996 -0.09699654579 -0.00030113505816873714 0.0007009421668032904
0.2206665576 -0.09699654579 -0.0003371025386992898 0.0007169822504189051
0.2259880155 -0.09699654579 -0.0003723928153900064 0.0007333997343287243
0.2313094735 -0.09699654579 -0.00042335110072040183 0.0007096478329104769
0.2366309315 -0.09699654579 -0.0004754474135761157 0.0006757254377266948
0.2419523895 -0.09699654579 -0.0005270663509768143 0.0006417645405116609
0.2472738475 -0.09699654579 -0.0005804669054582293 0.0006082098519909373
0.2525953054 -0.09699654579 -0.0006303955171465826 0.000579848615860169
0.2579167783 -0.09699654579 -0.0006829156547370185 0.0005561258022309035
0.2632382214 -0.09699654579 -0.0006924336203018921 0.0004976441532823262
0.2685596943 -0.09699654579 -0.0006878436784446759 0.0004319934099042054
0.2738811374 -0.09699654579 -0.0006876006897572453 0.00037156986482700307
0.2792026103 -0.09699654579 -0.0006838960687309153 0.00031873890302344443
0.2845240533 -0.09699654579 -0.000683178135326179 0.00026387175455779233
0.2898455262 -0.09699654579 -0.0006826581999800115 0.0002063316978384724
0.2951669693 -0.09699654579 -0.0006375903004342117 0.0001962408755393892
0.3004884422 -0.09699654579 -0.0005913964989661829 0.00019251851239838753
0.3058098853 -0.09699654579 -0.0005476018307604514 0.00019207915431653324
0.3111313581 -0.09699654579 -0.0005014157338104873 0.00019158665759005564
0.3164528012 -0.09699654579 -0.00045696742645066993 0.00019009471170825413
0.3217742741 -0.09699654579 -0.0004175014002155798 0.00019017826653538843
0.3270957172 -0.09699654579 -0.0004111459157264823 0.00022114010552840143
0.3324171901 -0.09699654579 -0.0004041935774304629 0.0002522797369788168
0.3377386332 -0.09699654579 -0.00039489517858916937 0.0002813528982339816
0.343060106 -0.09699654579 -0.0003847637705129173 0.0003081735965053228
0.3483815491 -0.09699654579 -0.0003813033939050303 0.0003351503563498161
0.353703022 -0.09699654579 -0.00037582340020148215 0.0003601386752990472
0.3590244651 -0.09699654579 -0.00038180809067017365 0.00037994435412789547
0.364345938 -0.09699654579 -0.00038860474573825605 0.0003980117131458444
0.369667381 -0.09699654579 -0.00039661780970446427 0.0004159547738949686
0.3749888539 -0.09699654579 -0.00040609634831354543 0.00043309516430219434
0.380310297 -0.09699654579 -0.0004224672818745814 0.0004500896514065944
0.3856317699 -0.09699654579 -0.0004433174477984445 0.0004678680932407211
0.390953213 -0.09699654579 -0.00046444506243609423 0.00048738758883402466
0.3962746859 -0.09699654579 -0.00048761191550200146 0.0005062145030746651
0.4015961289 -0.09699654579 -0.0005083964543713441 0.000525164669669263
0.4069176018 -0.09699654579 -0.0005291582632107838 0.0005423178603844512
0.4122390449 -0.09699654579 -0.0005531649866631496 0.0005550751372123686
0.4175605178 -0.09699654579 -0.0005799166484388346 0.000562372643590467
0.4228819609 -0.09699654579 -0.0006085252534370015 0.0005701279855136618
0.4282034338 -0.09699654579 -0.0006344252138835599 0.000577482224503637
0.4335248768 -0.09699654579 -0.0006607677121537656 0.0005849509205313682
0.4388463497 -0.09699654579 -0.0006833577128601474 0.0005870276795869306
0.4441677928 -0.09699654579 -0.0007037415452871285 0.000580005522943294
0.4494892657 -0.09699654579 -0.0007293010062242386 0.0005735556419673414
0.4548107088 -0.09699654579 -0.0007565059577669973 0.0005676772171929262
0.4601321816 -0.09699654579 -0.0007807391072202443 0.0005614159732222047
0.4654536247 -0.09699654579 -0.000796260861185825 0.0005578002883571276
0.4707750976 -0.09699654579 -0.0008069088424469339 0.0005541856618255956
0.4760965407 -0.09699654579 -0.0008106709435496731 0.0005504151362657868
0.4814180136 -0.09699654579 -0.0008194074356128782 0.000547197682004768
0.4867394567 -0.09699654579 -0.0008302721642275268 0.0005449335086530548
0.4920609295 -0.09699654579 -0.0008367905168989816 0.0005557857203641807
0.4973823726 -0.09699654579 -0.0008383973067378515 0.0005703392038163035
0.5027038455 -0.09699654579 -0.0008421540950151661 0.0005837235400531032
0.5080252886 -0.09699654579 -0.0008458982999484634 0.0005976514846915471
0.5133467317 -0.09699654579 -0.0008505500438761713 0.0006147490536631533
0.5186682343 -0.09699654579 -0.0008663578710846664 0.0006350475689926341
0.5239896774 -0.09699654579 -0.0008763221110593306 0.0006538839532350196
0.5293111205 -0.09699654579 -0.0008862882008535059 0.0006738374304322485
0.5346325636 -0.09699654579 -0.0008990446002311779 0.0006924252128252311
0.5399540663 -0.09699654579 -0.0009077694906700286 0.0007101327905173133
0.5452755094 -0.09699654579 -0.0009175285099601241 0.0007281792308680999
0.5505969524 -0.09699654579 -0.0009292153729165745 0.0007458700474448122
0.5559183955 -0.09699654579 -0.0009339637049773508 0.0007636386264958686
0.5612398982 -0.09699654579 -0.0009388767369155909 0.0007830100018596618
0.5665613413 -0.09699654579 -0.0009428032153274294 0.000802159706970007
0.5718827844 -0.09699654579 -0.0009475895858644524 0.0008220640179635436
0.5772042274 -0.09699654579 -0.0009520195752703503 0.0008463582339684402
0.5825257301 -0.09699654579 -0.0009536278879650888 0.0008701600470998887
0.5878471732 -0.09699654579 -0.0009556512396658604 0.0008954526084052512
0.5931686163 -0.09699654579 -0.0009592463069015136 0.0009210595986144567
0.5984900594 -0.09699654579 -0.0009669591922907836 0.0009463568656684852
0.6038115621 -0.09699654579 -0.0009751536438415093 0.0009703863564417744
0.6091330051 -0.09699654579 -0.0009827052773884795 0.0009932743797345215
0.6144544482 -0.09699654579 -0.0009928493160786351 0.0010152334054639959
0.6197758913 -0.09699654579 -0.0010033576722270252 0.0010338321516791679
0.625097394 -0.09699654579 -0.0010188972667671587 0.0010513668881987376
0.6304188371 -0.09699654579 -0.0010253818095303027 0.0010628968139062304
0.6357402802 -0.09699654579 -0.0010335012813650602 0.0010725055895798587
0.6410617828 -0.09699654579 -0.0010402050720235215 0.0010803071204974655
0.6463832259 -0.09699654579 -0.0010419078063800585 0.0010829285235636871
0.651704669 -0.09699654579 -0.0010466692627716632 0.0010831557071934487
0.6570261121 -0.09699654579 -0.001045988554343543 0.001080034035634352
0.6623476148 -0.09699654579 -0.0010418950337441396 0.0010750114816157
0.6676690578 -0.09699654579 -0.0010299855518654656 0.001065623473868916
0.6729905009 -0.09699654579 -0.0010186037641979622 0.0010518028776741884
0.678311944 -0.09699654579 -0.001003903871978089 0.001035260600382381
0.6836334467 -0.09699654579 -0.0009794672692016464 0.0010161006656887058
0.6889548898 -0.09699654579 -0.0009456849728233981 0.000992111665820185
0.6942763329 -0.09699654579 -0.00090716014589176 0.0009659843949331152
0.6995977759 -0.09699654579 -0.0008595018157266928 0.0009341752355644214
0.7049192786 -0.09699654579 -0.0007988566220364452 0.0009014152128624584
0.7102407217 -0.09699654579 -0.0007303004951703907 0.0008679256673136409
0.7155621648 -0.09699654579 -0.0006416734317655034 0.0008279623791776691
0.7208836079 -0.09699654579 -0.0005371816008098002 0.0007855982339466591
0.7262051105 -0.09699654579 -0.000416468639265023 0.0007441580804433933
0.7315265536 -0.09699654579 -0.00027753799365313396 0.0007055583671267071
0.7368479967 -0.09699654579 -0.00012208528548190637 0.0006721851925795979
0.7421694398 -0.09699654579 6.350251711545043e-05 0.0006478770289517528
0.7474909425 -0.09699654579 0.0002682362876507048 0.0006286450891869826
0.7528123856 -0.09699654579 0.000504768060243637 0.0006316373300808124
0.7581338286 -0.09699654579 0.0007669612009847005 0.0006438204956951426
-0.3008363545 -0.09367749095 -0.000811280067111705 0.000700646061331945
-0.2955148816 -0.09367749095 -0.0008145751912356957 0.0007171464267272164
-0.2901934385 -0.09367749095 -0.0008657924077269255 0.000771420083686715
-0.2848719656 -0.09367749095 -0.0009022227978136607 0.0008382269510401551
-0.2795505226 -0.09367749095 -0.0010029646428346354 0.0008986657472082695
-0.2742290497 -0.09367749095 -0.00118285290665524 0.0008845652645886656
-0.2689076066 -0.09367749095 -0.0013888240082236788 0.0008639486379198993
-0.2635861337 -0.09367749095 -0.0016283388654287196 0.0008998610304790445