VARIABLES = X,Y,phix,phiy
ZONE I=200,J=200,F=POINT 
-0.3008363545 -0.1003156006 2.9938037233856437e-05 -0.0006146559983129489
-0.2955148816 -0.1003156006 6.254375459607184e-05 -0.0006049665194660346
-0.2901934385 -0.1003156006 7.548119576846412e-05 -0.0005518809013073331
-0.2848719656 -0.1003156006 8.25623807245345e-05 -0.0004980963849136592
-0.2795505226 -0.1003156006 8.800757522167848e-05 -0.00042946640555252395
-0.2742290497 -0.1003156006 7.535004044491874e-05 -0.00035677007867480036
-0.2689076066 -0.1003156006 6.286792404943267e-05 -0.0003082121594720135
-0.2635861337 -0.1003156006 6.608412042440164e-05 -0.00031252855098743565
-0.2582646906 -0.1003156006 5.7243603860569066e-05 -0.0002784175237749461
-0.2529432178 -0.1003156006 2.5628590026272373e-05 -0.0002263161456857839
-0.2476217598 -0.1003156006 -2.340717709391678e-05 -0.0002001773476598462
-0.2423003018 -0.1003156006 -3.695437254139666e-05 -0.00022244597003635426
-0.2369788438 -0.1003156006 -1.923604411360177e-06 -0.00024616243949261046
-0.2316573858 -0.1003156006 5.995238433115161e-05 -0.0002667139167617454
-0.2263359278 -0.1003156006 0.00010547573496369528 -0.00027491283825549734
-0.2210144699 -0.1003156006 0.0001351849858041131 -0.000246969362882145
-0.2156930119 -0.1003156006 0.0001709662118178459 -0.00021725496304414275
-0.2103715539 -0.1003156006 0.0001927927986680798 -0.00019682288041134008
-0.2050500959 -0.1003156006 0.00018936257983803893 -0.00018010770606734694
-0.1997286379 -0.1003156006 0.0001817054778397742 -0.00016408538062134503
-0.19440718 -0.1003156006 0.00016481929555258368 -0.0001370243569662417
-0.189085722 -0.1003156006 0.0001490444947245571 -9.077173200930663e-05
-0.183764264 -0.1003156006 0.00012442567321684848 -3.127087905372148e-05
-0.178442806 -0.1003156006 0.00010621670529362784 4.0293409188409334e-05
-0.173121348 -0.1003156006 9.702226287367096e-05 5.6012230210994844e-05
-0.16779989 -0.1003156006 8.728699698119452e-05 6.536704330226286e-05
-0.1624784321 -0.1003156006 7.662753185691037e-05 6.098298793054202e-05
-0.1571569741 -0.1003156006 6.850939982486231e-05 6.321186299555248e-05
-0.1518355161 -0.1003156006 5.4185448287447464e-05 6.734374083510796e-05
-0.1465140581 -0.1003156006 3.7950945930761245e-05 7.100040516755625e-05
-0.1411926001 -0.1003156006 2.230277072766963e-05 7.167912193983433e-05
-0.1358711421 -0.1003156006 8.89590729147881e-06 7.038273730971996e-05
-0.1305496842 -0.1003156006 -5.9011779598913765e-06 6.892825151934699e-05
-0.1252282262 -0.1003156006 -2.101969274648863e-05 6.524366617974375e-05
-0.1199067682 -0.1003156006 -2.9622262535788694e-05 5.726363314484501e-05
-0.1145853102 -0.1003156006 -3.356997257678148e-05 4.872955691450557e-05
-0.1092638522 -0.1003156006 -3.794192555443586e-05 4.133422047933949e-05
-0.1039423943 -0.1003156006 -4.389434665342166e-05 3.3535729021482976e-05
-0.09862093627 -0.1003156006 -3.9045816398059564e-05 2.1996964674552124e-05
-0.09329947084 -0.1003156006 -3.818251887791542e-05 1.078540008597183e-05
-0.08797801286 -0.1003156006 -3.295133222486809e-05 -3.394961957288643e-07
-0.08265655488 -0.1003156006 -3.280108811305183e-05 -1.2193921564321087e-05
-0.0773350969 -0.1003156006 -2.854830022288901e-05 -2.2228502697322264e-05
-0.07201363891 -0.1003156006 -2.5047903724617543e-05 -3.206830373744195e-05
-0.06669218093 -0.1003156006 -2.0127301462601893e-05 -4.194381432227461e-05
-0.06137072667 -0.1003156006 -1.9086280210601724e-05 -5.235913865148411e-05
-0.05604926869 -0.1003156006 -1.8881298065752995e-05 -5.320496958561374e-05
-0.05072781071 -0.1003156006 -2.2584072272810894e-05 -5.156465539863061e-05
-0.045406349 -0.1003156006 -2.3167246365859256e-05 -5.008320033919947e-05
-0.04008489102 -0.1003156006 -2.4204866231887585e-05 -4.8227103354297584e-05
-0.03476343304 -0.1003156006 -2.4920973501991857e-05 -4.7266316858625456e-05
-0.02944197692 -0.1003156006 -2.663708024320143e-05 -4.799517211570194e-05
-0.02412051894 -0.1003156006 -2.690048942811397e-05 -4.8573765514861106e-05
-0.01879905909 -0.1003156006 -2.9833298540970723e-05 -4.8966169450312e-05
-0.01347760204 -0.1003156006 -3.184214086382455e-05 -4.956606099995481e-05
-0.00815614406 -0.1003156006 -3.141795401950401e-05 -5.062535603626498e-05
-0.00283468538 -0.1003156006 -3.191444216007972e-05 -5.1688458509952266e-05
0.002486772602 -0.1003156006 -3.493827335679798e-05 -5.28338891294723e-05
0.007808230817 -0.1003156006 -3.772526251115096e-05 -5.3820355692654736e-05
0.0131296888 -0.1003156006 -3.762834192358277e-05 -5.4958308915480454e-05
0.01845114678 -0.1003156006 -3.1544839619903803e-05 -5.772916703307013e-05
0.02377260476 -0.1003156006 -2.606925178354187e-05 -6.1588816526403e-05
0.02909406275 -0.1003156006 -1.590486475573733e-05 -6.629188774137613e-05
0.03441552073 -0.1003156006 -5.293625501311843e-06 -7.092944980834611e-05
0.03973697871 -0.1003156006 2.9029744664741427e-06 -7.493947501425858e-05
0.04505843669 -0.1003156006 1.3125760472231821e-05 -7.146858972616439e-05
0.05037989467 -0.1003156006 3.353916482042083e-05 -5.395504714434733e-05
0.05570135266 -0.1003156006 5.598866848445147e-05 -3.541771221903314e-05
0.06102281436 -0.1003156006 7.529648436670037e-05 -1.6987876494979886e-05
0.06634426862 -0.1003156006 9.731557642096043e-05 8.726124254151612e-07
0.0716657266 -0.1003156006 0.00011771624006250591 1.8300487582018852e-05
0.07698718458 -0.1003156006 0.00010651944924664322 4.3819930736668185e-05
0.08230864257 -0.1003156006 9.553469993546158e-05 7.016286932809772e-05
0.08763010055 -0.1003156006 8.269596564869467e-05 9.692821446518139e-05
0.09295155853 -0.1003156006 7.256015681831583e-05 0.00012334116026765826
0.09827301651 -0.1003156006 5.862930987478915e-05 0.00014951463722437814
0.1035944745 -0.1003156006 4.888019834507567e-05 0.0001678877642904104
0.1089159325 -0.1003156006 3.280736978931699e-05 0.00017062397689145134
0.1142373979 -0.1003156006 1.7009833776908e-05 0.00017339202389614407
0.1195588559 -0.1003156006 -1.3217814597416495e-06 0.0001784884705636149
0.1248803139 -0.1003156006 -1.57906620353075e-05 0.00018271418367714123
0.1302017719 -0.1003156006 -3.200460035647599e-05 0.00018631657847885052
0.1355232298 -0.1003156006 -2.5495834624951954e-05 0.00020123846700279978
0.1408446878 -0.1003156006 -3.985682873174588e-06 0.00022309451996250718
0.1461661458 -0.1003156006 1.4796158145080292e-05 0.00024449617984171257
0.1514876038 -0.1003156006 2.846535828715641e-05 0.00026576422775363836
0.1568090618 -0.1003156006 4.8777946904740995e-05 0.0002870534374935225
0.1621305197 -0.1003156006 6.861441122062475e-05 0.00030836398084676744
0.1674519777 -0.1003156006 5.434916684163926e-05 0.00032950640336003014
0.1727734357 -0.1003156006 2.9647718953171315e-05 0.0003514571625215293
0.1780948937 -0.1003156006 4.984962270884799e-06 0.0003732742761245375
0.1834163517 -0.1003156006 -2.1578131332895882e-05 0.0003951896276695139
0.1887378097 -0.1003156006 -4.799198146306203e-05 0.0004153289850320914
0.1940592676 -0.1003156006 -7.139206309134989e-05 0.0004315815460518692
0.1993807256 -0.1003156006 -9.772918648804748e-05 0.000417711639213108
0.2047021836 -0.1003156006 -0.0001303715123483559 0.00039400547279276935
0.2100236416 -0.1003156006 -0.00016387401871851596 0.0003706447989507033
0.2153450996 -0.1003156006 -0.00018443501927361115 0.00034644677104482866
0.2206665576 -0.1003156006 -0.00021593542212082256 0.0003219610243920047
0.2259880155 -0.1003156006 -0.00024146040416820092 0.0002973326386414873
0.2313094735 -0.1003156006 -0.00024139785422934375 0.0002653713954757033
0.2366309315 -0.1003156006 -0.00023473941608099917 0.0002355671907953026
0.2419523895 -0.1003156006 -0.00022438263990463887 0.00020715566741194487
0.2472738475 -0.1003156006 -0.0002179331683227885 0.00017955837821378212
0.2525953054 -0.1003156006 -0.00021484343829399326 0.00015623633334605
0.2579167783 -0.1003156006 -0.0002069097468221645 0.00013250761854303355
0.2632382214 -0.1003156006 -0.00018275842169344008 0.00012441222663610023
0.2685596943 -0.1003156006 -0.00015280545021958608 0.00012117022913584538
0.2738811374 -0.1003156006 -0.00012327464299349676 0.00011806238445565192
0.2792026103 -0.1003156006 -9.310167455459831e-05 0.0001147306259075137
0.2845240533 -0.1003156006 -6.366089599942179e-05 0.00011226032328146242
0.2898455262 -0.1003156006 -3.4664249948855665e-05 0.00010982756470237349
0.2951669693 -0.1003156006 -1.3083256606610397e-05 0.00012303233898362608
0.3004884422 -0.1003156006 6.422853216455907e-06 0.00013757569072213107
0.3058098853 -0.1003156006 2.2712640234396157e-05 0.00015281673560125993
0.3111313581 -0.1003156006 4.365323935060468e-05 0.00016788020540237368
0.3164528012 -0.1003156006 6.109981825770521e-05 0.00018314262315142888
0.3217742741 -0.1003156006 8.035355008546955e-05 0.0001981106722769736
0.3270957172 -0.1003156006 8.986537263671685e-05 0.0002191940017537351
0.3324171901 -0.1003156006 9.86127424020961e-05 0.0002402145883027395
0.3377386332 -0.1003156006 0.0001078129259217863 0.0002612490550732837
0.343060106 -0.1003156006 0.00011773016098244746 0.0002821417372461123
0.3483815491 -0.1003156006 0.00012457798682373694 0.0003000065979898036
0.353703022 -0.1003156006 0.00012655397500711617 0.00032218119439541816
0.3590244651 -0.1003156006 0.00010844338215141014 0.0003549592005938266
0.364345938 -0.1003156006 9.324870468735384e-05 0.0003880753251202194
0.369667381 -0.1003156006 7.69820423988115e-05 0.00041576642765847713
0.3749888539 -0.1003156006 6.451122628764466e-05 0.000444739539593363
0.380310297 -0.1003156006 4.780388382263529e-05 0.0004741541033139173
0.3856317699 -0.1003156006 4.5215090600096995e-06 0.0004747122911935476
0.390953213 -0.1003156006 -3.6612641083191234e-05 0.0004666294638725105
0.3962746859 -0.1003156006 -8.041312742247718e-05 0.0004578235827172325
0.4015961289 -0.1003156006 -0.0001236352292416472 0.0004505777172429674
0.4069176018 -0.1003156006 -0.00016338288232917815 0.0004436641191074195
0.4122390449 -0.1003156006 -0.0001848163671617689 0.0004229714073127178
0.4175605178 -0.1003156006 -0.00018429733649902687 0.0003789116731449913
0.4228819609 -0.1003156006 -0.00018445196658265774 0.0003321082816208404
0.4282034338 -0.1003156006 -0.00018734299760085572 0.00028609500519476307
0.4335248768 -0.1003156006 -0.00018640280336177617 0.00024572866866506756
0.4388463497 -0.1003156006 -0.00017395583896070266 0.00021234924922092398
0.4441677928 -0.1003156006 -0.0001286119187591273 0.00019734024784333118
0.4494892657 -0.1003156006 -8.465778086296493e-05 0.00018320824956485711
0.4548107088 -0.1003156006 -4.622598941614903e-05 0.00017022716436148084
0.4601321816 -0.1003156006 -4.393776876636342e-06 0.00015590439680255485
0.4654536247 -0.1003156006 3.902632271623927e-05 0.00015569649223778984
0.4707750976 -0.1003156006 7.414261129123566e-05 0.0001757089910102904
0.4760965407 -0.1003156006 0.00010603015594417438 0.00019458520564674797
0.4814180136 -0.1003156006 0.00014133667768777777 0.0002138451227708187
0.4867394567 -0.1003156006 0.00017431465397725127 0.00023310590259620825
0.4920609295 -0.1003156006 0.00018995629015000572 0.00026016909285570363
0.4973823726 -0.1003156006 0.00019184819306029165 0.000290737354175501
0.5027038455 -0.1003156006 0.0002012765203144323 0.0003204832499430979
0.5080252886 -0.1003156006 0.00020277331005678643 0.00035031181112271106
0.5133467317 -0.1003156006 0.00020004749066506093 0.0003733701479455638
0.5186682343 -0.1003156006 0.00018324813066210131 0.00039574718344008995
0.5239896774 -0.1003156006 0.00016374378980533942 0.0004195141579956038
0.5293111205 -0.1003156006 0.00014454850952668117 0.00044148508904149155
0.5346325636 -0.1003156006 0.00012036492877747102 0.00045330808695300597
0.5399540663 -0.1003156006 9.284848742252949e-05 0.00045543182031484503
0.5452755094 -0.1003156006 5.4770717090526755e-05 0.00045778035762688966
0.5505969524 -0.1003156006 2.4396096106763598e-05 0.0004596029646077762
0.5559183955 -0.1003156006 -4.685453306140298e-06 0.00044826870386768493
0.5612398982 -0.1003156006 -3.405888814604223e-05 0.00043033373465503074
0.5665613413 -0.1003156006 -6.384378692966858e-05 0.0004131639909278781
0.5718827844 -0.1003156006 -9.056863806315027e-05 0.0003923144785615674
0.5772042274 -0.1003156006 -0.00011463118311548532 0.000363047507320232
0.5825257301 -0.1003156006 -0.00013501103014014668 0.00033260980256406467
0.5878471732 -0.1003156006 -0.0001600740481591067 0.00030098663282801953
0.5931686163 -0.1003156006 -0.00017993057366577517 0.0002648591787277065
0.5984900594 -0.1003156006 -0.00020528361280147325 0.00022794366943905013
0.6038115621 -0.1003156006 -0.00021998423447703024 0.0001905110966088504
0.6091330051 -0.1003156006 -0.00024002463812642584 0.0001524219803490693
0.6144544482 -0.1003156006 -0.0002556107920847738 0.0001129401626562157
0.6197758913 -0.1003156006 -0.00027458528859605524 7.141993338041413e-05
0.625097394 -0.1003156006 -0.00029821829428897936 2.678985452533439e-05
0.6304188371 -0.1003156006 -0.00032328139362385906 -2.175068657166572e-05
0.6357402802 -0.1003156006 -0.0003485350066430946 -7.205503081639205e-05
0.6410617828 -0.1003156006 -0.00037387317863779313 -0.00012818586473893422
0.6463832259 -0.1003156006 -0.00039717724825846616 -0.00018521084853448464
0.651704669 -0.1003156006 -0.0004208549426768202 -0.00024730429317096743
0.6570261121 -0.1003156006 -0.0004449064385553454 -0.00031836333507059307
0.6623476148 -0.1003156006 -0.00047853247231660677 -0.0003957709548905759
0.6676690578 -0.1003156006 -0.0005108817366994577 -0.00047751428476220997
0.6729905009 -0.1003156006 -0.0005470630393844596 -0.0005720186113306514
0.678311944 -0.1003156006 -0.0005772937817255501 -0.0006734494376416722
0.6836334467 -0.1003156006 -0.0006090033845813825 -0.0007813940647939474
0.6889548898 -0.1003156006 -0.0006413570085771184 -0.0008961921825732063
0.6942763329 -0.1003156006 -0.0006780331431236312 -0.0010235490804053422
0.6995977759 -0.1003156006 -0.0007042089965506065 -0.0011607984657340626
0.7049192786 -0.1003156006 -0.0007243501550859534 -0.0013061432788573813
0.7102407217 -0.1003156006 -0.000743425511888444 -0.00147153749230322
0.7155621648 -0.1003156006 -0.0007623600311154596 -0.0016443252092782049
0.7208836079 -0.1003156006 -0.0007765209815064675 -0.0018314219505159834
0.7262051105 -0.1003156006 -0.0007872327541642288 -0.0020323647503735385
0.7315265536 -0.1003156006 -0.0007874421285122861 -0.0022514318719491226
0.7368479967 -0.1003156006 -0.0007789657371957151 -0.002491260997945246
0.7421694398 -0.1003156006 -0.0007581587087791143 -0.0027463771330033413
0.7474909425 -0.1003156006 -0.0007234723558722352 -0.0030077254283908277
0.7528123856 -0.1003156006 -0.0006779801020330772 -0.0033069432301830962
0.7581338286 -0.1003156006 -0.0006163371943594245 -0.0036181117334185575
-0.3008363545 -0.09699654579 2.9241108588921214e-05 -0.0006138600150151976
-0.2955148816 -0.09699654579 6.272645011528848e-05 -0.0006181496833762856
-0.2901934385 -0.09699654579 9.649697599043138e-05 -0.0005873659703061173
-0.2848719656 -0.09699654579 0.00010339521909243902 -0.0005271834974332196
-0.2795505226 -0.09699654579 0.00012858277232112998 -0.0004553217698624694
-0.2742290497 -0.09699654579 0.00012003957348939017 -0.0003937169084338766
-0.2689076066 -0.09699654579 0.00010551303067431471 -0.00035519693212512357
-0.2635861337 -0.09699654579 0.00010853550793602747 -0.00030197584701323636
-0.2582646906 -0.09699654579 0.00012266506228745096 -0.00025840717556050515
-0.2529432178 -0.09699654579 8.991538019226528e-05 -0.0002188941388657039
-0.2476217598 -0.09699654579 1.271648129405527e-05 -0.00022726865707137103
-0.2423003018 -0.09699654579 -3.859965911715004e-05 -0.00024826260890940946
-0.2369788438 -0.09699654579 3.1028623900651426e-05 -0.0002770293788105764
-0.2316573858 -0.09699654579 8.615772007877214e-05 -0.0002910976925742434
-0.2263359278 -0.09699654579 0.00016929355987609416 -0.0002727321356265018
-0.2210144699 -0.09699654579 0.0002141823272485251 -0.0002453709487434188
-0.2156930119 -0.09699654579 0.00023480530652384882 -0.00022605772284944227
-0.2103715539 -0.09699654579 0.0002485661137527739 -0.00021940111505765043
-0.2050500959 -0.09699654579 0.00024897828403489506 -0.00020600018672478745
-0.1997286379 -0.09699654579 0.00023098443871416165 -0.00017851773100120585
-0.19440718 -0.09699654579 0.00021539304636026903 -0.000128768091758908
-0.189085722 -0.09699654579 0.00020036296865707324 -3.9788070329162015e-05
-0.183764264 -0.09699654579 0.00018777142000158344 3.475629705020854e-05
-0.178442806 -0.09699654579 0.00017829632797071977 9.371362042144548e-05
-0.173121348 -0.09699654579 0.0001696913218502011 0.00011088826436746062
-0.16779989 -0.09699654579 0.0001579526692068018 0.00010012136632757895
-0.1624784321 -0.09699654579 0.00014459302220258286 8.498944075257404e-05
-0.1571569741 -0.09699654579 0.00012771581817114957 8.147003813633459e-05
-0.1518355161 -0.09699654579 0.00010831902585767386 8.286472969321999e-05
-0.1465140581 -0.09699654579 8.860326976925439e-05 8.081893922915738e-05
-0.1411926001 -0.09699654579 7.122968015736792e-05 7.856148590919844e-05
-0.1358711421 -0.09699654579 5.1957918862192976e-05 7.439668190460448e-05
-0.1305496842 -0.09699654579 3.0698099679159536e-05 6.930056333800244e-05
-0.1252282262 -0.09699654579 1.0237900584243368e-05 6.485697892338074e-05
-0.1199067682 -0.09699654579 -3.89263517905551e-06 5.809237424442661e-05
-0.1145853102 -0.09699654579 -1.2173982032042223e-05 5.2313929787130066e-05
-0.1092638522 -0.09699654579 -2.1977296267061804e-05 4.6258576710728425e-05
-0.1039423943 -0.09699654579 -3.80350825062778e-05 4.062446065009199e-05
-0.09862093627 -0.09699654579 -3.857573152086498e-05 2.7492529481911688e-05
-0.09329947084 -0.09699654579 -4.1607628517634195e-05 1.295399163113983e-05
-0.08797801286 -0.09699654579 -4.9566798511110654e-05 -3.031653224388558e-06
-0.08265655488 -0.09699654579 -5.176743044205369e-05 -1.76590325035322e-05
-0.0773350969 -0.09699654579 -5.1176651721797886e-05 -2.836724185405143e-05
-0.07201363891 -0.09699654579 -4.9914443232768966e-05 -3.934736160795552e-05
-0.06669218093 -0.09699654579 -4.966459253797793e-05 -5.010720174239973e-05
-0.06137072667 -0.09699654579 -5.1532689396572964e-05 -6.0122596965706236e-05
-0.05604926869 -0.09699654579 -5.687893381371357e-05 -6.045621426014478e-05
-0.05072781071 -0.09699654579 -6.228843432093304e-05 -5.761617503036124e-05
-0.045406349 -0.09699654579 -6.757204961633827e-05 -5.482956690345299e-05
-0.04008489102 -0.09699654579 -7.397008386765305e-05 -5.270992267798474e-05
-0.03476343304 -0.09699654579 -7.97339471829375e-05 -5.160184780258414e-05
-0.02944197692 -0.09699654579 -8.341318278816477e-05 -5.141189884492488e-05
-0.02412051894 -0.09699654579 -8.536047883390945e-05 -5.144029724118521e-05
-0.01879905909 -0.09699654579 -8.996801740651459e-05 -5.130152470440429e-05
-0.01347760204 -0.09699654579 -9.518049677819672e-05 -5.117213342571192e-05
-0.00815614406 -0.09699654579 -9.579740810669781e-05 -5.1849193485941595e-05
-0.00283468538 -0.09699654579 -9.994366165466013e-05 -5.2835155850863564e-05
0.002486772602 -0.09699654579 -0.00010198643637578667 -5.385207200556896e-05
0.007808230817 -0.09699654579 -0.00010287650812701789 -5.489711791345354e-05
0.0131296888 -0.09699654579 -0.00010631342637517472 -5.591714306611523e-05
0.01845114678 -0.09699654579 -0.00010228307511466692 -5.9760620034192064e-05
0.02377260476 -0.09699654579 -8.980138989975803e-05 -6.539661134249583e-05
0.02909406275 -0.09699654579 -8.023262268229399e-05 -7.158547316491487e-05
0.03441552073 -0.09699654579 -6.654699472131156e-05 -7.785663841488637e-05
0.03973697871 -0.09699654579 -5.596542949771056e-05 -8.348179814169783e-05
0.04505843669 -0.09699654579 -4.0194387794433e-05 -8.019304372466047e-05
0.05037989467 -0.09699654579 -1.6075493772541414e-05 -6.0605489990790896e-05
0.05570135266 -0.09699654579 6.139528063337921e-06 -4.0920359671317944e-05
0.06102281436 -0.09699654579 3.132927292642841e-05 -2.0797797871742963e-05
0.06634426862 -0.09699654579 5.1478212529465514e-05 -1.3920889615021648e-06
0.0716657266 -0.09699654579 7.652548700240504e-05 1.790796074130752e-05
0.07698718458 -0.09699654579 6.906879853905641e-05 4.5798640878380635e-05
0.08230864257 -0.09699654579 5.632028970112593e-05 7.439837876211129e-05
0.08763010055 -0.09699654579 4.118154944516661e-05 0.0001023863739063257
0.09295155853 -0.09699654579 3.0935101752331205e-05 0.00013049894621668473
0.09827301651 -0.09699654579 1.803281435296257e-05 0.00015866173044269859
0.1035944745 -0.09699654579 4.19154701756837e-06 0.00017610308560653162
0.1089159325 -0.09699654579 -1.0493319033113291e-05 0.00017404998645572097
0.1142373979 -0.09699654579 -2.6859160807514465e-05 0.00017358089682390057
0.1195588559 -0.09699654579 -4.06735366552524e-05 0.00017434041508758438
0.1248803139 -0.09699654579 -5.736614899414713e-05 0.00017513337588137844
0.1302017719 -0.09699654579 -7.297266002345603e-05 0.00017484043214759999
0.1355232298 -0.09699654579 -6.684734750215962e-05 0.00018958593722102465
0.1408446878 -0.09699654579 -4.3990548259981947e-05 0.00021262142528817487
0.1461661458 -0.09699654579 -1.8067268802051867e-05 0.00023588372619568
0.1514876038 -0.09699654579 2.8081439435283066e-07 0.0002593846899878304
0.1568090618 -0.09699654579 2.4377700267400775e-05 0.00028302175388780933
0.1621305197 -0.09699654579 4.725650168179288e-05 0.00030564194965584446
0.1674519777 -0.09699654579 3.026920730084837e-05 0.0003335721800111156
0.1727734357 -0.09699654579 6.209891767275133e-06 0.0003634270969123543
0.1780948937 -0.09699654579 -1.8877085806082355e-05 0.00039717813869649904
0.1834163517 -0.09699654579 -4.4739611421467675e-05 0.0004295509391842532
0.1887378097 -0.09699654579 -6.940501661514505e-05 0.00045449456286280183
0.1940592676 -0.09699654579 -9.41867452588649e-05 0.00047978879931321743
0.1993807256 -0.09699654579 -0.00012783306366894766 0.00046437866052689516
0.2047021836 -0.09699654579 -0.00016587918099469147 0.00043771133154257407
0.2100236416 -0.09699654579 -0.0001985834253713348 0.0004143292795804572
0.2153450996 -0.09699654579 -0.00022936769242226258 0.00039055117144821077
0.2206665576 -0.09699654579 -0.0002603358586113024 0.00036702063780430033
0.2259880155 -0.09699654579 -0.0002929526585491252 0.00034313370102706796
0.2313094735 -0.09699654579 -0.00028968491445216613 0.0003096617801140266
0.2366309315 -0.09699654579 -0.0002765264815995252 0.00027388840765269005
0.2419523895 -0.09699654579 -0.0002631222091466829 0.00023821225363797219
0.2472738475 -0.09699654579 -0.00025298410202749755 0.0002025413850028191
0.2525953054 -0.09699654579 -0.00024304178080586657 0.0001699501430765574
0.2579167783 -0.09699654579 -0.00023400784393790767 0.0001394293253413573
0.2632382214 -0.09699654579 -0.00020109996423734047 0.00012658109706957093
0.2685596943 -0.09699654579 -0.00016531114901261712 0.00011838050680619071
0.2738811374 -0.09699654579 -0.00013261294891241674 0.00011045695350120983
0.2792026103 -0.09699654579 -9.577626868041449e-05 0.00010502423676687979
0.2845240533 -0.09699654579 -6.486378425463995e-05 9.826812378083263e-05
0.2898455262 -0.09699654579 -3.0096898100676758e-05 9.196318587087082e-05
0.2951669693 -0.09699654579 -5.863704341855728e-06 0.00010245126415831325
0.3004884422 -0.09699654579 1.516152171138425e-05 0.00011716011229162046
0.3058098853 -0.09699654579 3.6670337897689104e-05 0.00013307480290746234
0.3111313581 -0.09699654579 5.602300435803428e-05 0.00014882868270214215
0.3164528012 -0.09699654579 7.319162732573956e-05 0.00016399022544843773
0.3217742741 -0.09699654579 9.204054841956153e-05 0.00018043888020957674
0.3270957172 -0.09699654579 0.00010449172126148259 0.00020412675811778047
0.3324171901 -0.09699654579 0.00011766157379547111 0.00022781845398970119
0.3377386332 -0.09699654579 0.00012633616228922162 0.0002507588352344493
0.343060106 -0.09699654579 0.0001367651195018676 0.00027270595737013227
0.3483815491 -0.09699654579 0.00014833232819098504 0.00029505861343883744
0.353703022 -0.09699654579 0.00014592997693042113 0.00032426491689415375
0.3590244651 -0.09699654579 0.00013106421396872503 0.0003637093086982408
0.364345938 -0.09699654579 0.00011063412193967381 0.0003992360067259739
0.369667381 -0.09699654579 9.383629947331038e-05 0.0004346916926156809
0.3749888539 -0.09699654579 7.807185294454101e-05 0.00047025570912350925
0.380310297 -0.09699654579 5.911744079463716e-05 0.0005032114910066128
0.3856317699 -0.09699654579 1.5768629790388682e-05 0.0005018393157986138
0.390953213 -0.09699654579 -3.5690496198445e-05 0.0004917920281546043
0.3962746859 -0.09699654579 -9.28174709312013e-05 0.0004815381099263138
0.4015961289 -0.09699654579 -0.00014114915108258178 0.000472277354680017
0.4069176018 -0.09699654579 -0.00018984506235060673 0.0004629948542570019
0.4122390449 -0.09699654579 -0.0002157374252692972 0.00043374863593726327
0.4175605178 -0.09699654579 -0.0002191464929917443 0.0003769037457516036
0.4228819609 -0.09699654579 -0.00021890737675833862 0.0003279557230540219
0.4282034338 -0.09699654579 -0.0002204798328357028 0.00028088409884525584
0.4335248768 -0.09699654579 -0.00021839869077218947 0.0002332726199847378
0.4388463497 -0.09699654579 -0.00020593045894488256 0.00019192574002352942
0.4441677928 -0.09699654579 -0.00015667926979584396 0.0001758440795299859
0.4494892657 -0.09699654579 -0.00010898796572359845 0.00015992144741946217
0.4548107088 -0.09699654579 -6.339476692409808e-05 0.00014409434379059437
0.4601321816 -0.09699654579 -1.586327734220731e-05 0.00012818663964922147
0.4654536247 -0.09699654579 2.4282344384548547e-05 0.0001287015041328994
0.4707750976 -0.09699654579 6.293737800101974e-05 0.00015042730598842526
0.4760965407 -0.09699654579 0.00010204569893155936 0.00017386509901349978
0.4814180136 -0.09699654579 0.00014350622051183167 0.0001954195245737269
0.4867394567 -0.09699654579 0.00017714005893050287 0.00021610447046821498
0.4920609295 -0.09699654579 0.00019140497021729756 0.00024881459673684845
0.4973823726 -0.09699654579 0.00020000683078581416 0.00028490111853076105
0.5027038455 -0.09699654579 0.00020512748944025603 0.00031566350020079565
0.5080252886 -0.09699654579 0.00020946484147076836 0.00034950018748844164
0.5133467317 -0.09699654579 0.0002005775699209968 0.00038105622710432016
0.5186682343 -0.09699654579 0.00018158408531122446 0.00040718487070021456
0.5239896774 -0.09699654579 0.00016170521358764236 0.00043085887198238593
0.5293111205 -0.09699654579 0.0001446294751068628 0.00045534091780108366
0.5346325636 -0.09699654579 0.00011406220724807502 0.0004721702776177413
0.5399540663 -0.09699654579 7.757315638739579e-05 0.000474621090933488
0.5452755094 -0.09699654579 4.5683139624640384e-05 0.000476770572287219
0.5505969524 -0.09699654579 1.1464380284440103e-05 0.0004788832201564399
0.5559183955 -0.09699654579 -2.0406646118292374e-05 0.0004659735961770404
0.5612398982 -0.09699654579 -5.2202333512049086e-05 0.00044813692456841686
0.5665613413 -0.09699654579 -8.155751767839985e-05 0.00043016615086776517
0.5718827844 -0.09699654579 -0.00011021647179680161 0.000406690731475906
0.5772042274 -0.09699654579 -0.0001345159395925136 0.000376377384587357
0.5825257301 -0.09699654579 -0.0001582340008497891 0.00034593169619792684
0.5878471732 -0.09699654579 -0.00018263977119588342 0.0003124114486833955
0.5931686163 -0.09699654579 -0.0002041103232428485 0.00027589779114867385
0.5984900594 -0.09699654579 -0.0002273093274178163 0.00023988076591076676
0.6038115621 -0.09699654579 -0.00024510533511921517 0.00020240265355275168
0.6091330051 -0.09699654579 -0.00025820443433778676 0.00016453548574605603
0.6144544482 -0.09699654579 -0.0002741865642812068 0.0001258651551131043
0.6197758913 -0.09699654579 -0.00029754861729746024 8.374771201883726e-05
0.625097394 -0.09699654579 -0.0003187963010827473 4.120391417129146e-05
0.6304188371 -0.09699654579 -0.0003481978069613721 -8.65463393379077e-06
0.6357402802 -0.09699654579 -0.00037776253737661946 -5.748953509861801e-05
0.6410617828 -0.09699654579 -0.00040492417546600195 -0.0001091259865656449
0.6463832259 -0.09699654579 -0.00043472749461480044 -0.00016679342592966232
0.651704669 -0.09699654579 -0.0004622139233903363 -0.00022762295903334067
0.6570261121 -0.09699654579 -0.0004903762794256065 -0.00029970587791550694
0.6623476148 -0.09699654579 -0.0005244918908813638 -0.000376273748658935
0.6676690578 -0.09699654579 -0.0005612666047927041 -0.00045939477451605623
0.6729905009 -0.09699654579 -0.0006002472261614544 -0.0005534626435344793
0.678311944 -0.09699654579 -0.0006378356759888339 -0.0006533893668871748
0.6836334467 -0.09699654579 -0.0006767955587064845 -0.0007598916823869046
0.6889548898 -0.09699654579 -0.0007154223382263668 -0.0008744341400338532
0.6942763329 -0.09699654579 -0.0007538859520941246 -0.001002596072657027
0.6995977759 -0.09699654579 -0.0007914445719126789 -0.0011407979923254228
0.7049192786 -0.09699654579 -0.0008238537092373779 -0.0012886803774834973
0.7102407217 -0.09699654579 -0.0008485243108371844 -0.0014543008751048971
0.7155621648 -0.09699654579 -0.0008732372676447841 -0.0016312261629170995
0.7208836079 -0.09699654579 -0.0009031432542721179 -0.0018248259714959104
0.7262051105 -0.09699654579 -0.0009224283793265447 -0.002033648187968446
0.7315265536 -0.09699654579 -0.0009368072025221608 -0.002253930647065976
0.7368479967 -0.09699654579 -0.0009345108978936077 -0.002497368448681909
0.7421694398 -0.09699654579 -0.000926051808383013 -0.0027591964246841713
0.7474909425 -0.09699654579 -0.0009027460704948433 -0.0030374621082028745
0.7528123856 -0.09699654579 -0.0008711668530930643 -0.0033427560494987134
0.7581338286 -0.09699654579 -0.0008181877951800236 -0.003659936595028495
-0.3008363545 -0.09367749095 2.8568789937003496e-05 -0.0006146801345160112
-0.2955148816 -0.09367749095 5.8917156607099446e-05 -0.0006210101712858801
-0.2901934385 -0.09367749095 0.00010587100878181642 -0.0006113269220333267
-0.2848719656 -0.09367749095 0.00015444963175782842 -0.0005522317699860631
-0.2795505226 -0.09367749095 0.00017422008032456733 -0.0004799232255130904
-0.2742290497 -0.09367749095 0.0001629450789809651 -0.00043794070454761176