VARIABLES = X,Y,phix,phiy
ZONE I=200,J=200,F=POINT 
-0.3008363545 -0.1003156006 -0.0002594908749913231 -0.0004425832867253735
-0.2955148816 -0.1003156006 -0.00025804736313507216 -0.0004198615258726558
-0.2901934385 -0.1003156006 -0.0002709250223484886 -0.0004089476370088802
-0.2848719656 -0.1003156006 -0.0002806123679740605 -0.00040131900889111194
-0.2795505226 -0.1003156006 -0.0002927410852640378 -0.0003946488772377662
-0.2742290497 -0.1003156006 -0.00028611608871246044 -0.0003813482454529942
-0.2689076066 -0.1003156006 -0.00026416805931704017 -0.00036947179518452507
-0.2635861337 -0.1003156006 -0.0002802958508815991 -0.0003729811061174525
-0.2582646906 -0.1003156006 -0.00031581635391072957 -0.0003948523608232107
-0.2529432178 -0.1003156006 -0.0003516013134384737 -0.00041943670235548066
-0.2476217598 -0.1003156006 -0.0003671273366278979 -0.00045871916168578576
-0.2423003018 -0.1003156006 -0.00036578012045348314 -0.00048700868151574253
-0.2369788438 -0.1003156006 -0.0003780436419176062 -0.000478064230595486
-0.2316573858 -0.1003156006 -0.0003870433952317703 -0.000468708165786596
-0.2263359278 -0.1003156006 -0.0003805128509609222 -0.0004587895387849011
-0.2210144699 -0.1003156006 -0.00032461193746296233 -0.00046045942222741685
-0.2156930119 -0.1003156006 -0.00025457370398651564 -0.00045328382516345126
-0.2103715539 -0.1003156006 -0.00018407905093180304 -0.0004472568908497337
-0.2050500959 -0.1003156006 -0.00019961734497741558 -0.0004118383066561202
-0.1997286379 -0.1003156006 -0.0002260738758083968 -0.0003886950560820532
-0.19440718 -0.1003156006 -0.0002610568040443052 -0.0003649649485454183
-0.189085722 -0.1003156006 -0.00023164695083056447 -0.0003305378426796913
-0.183764264 -0.1003156006 -0.00019912909461446607 -0.0002717551517543273
-0.178442806 -0.1003156006 -0.00016313416702005734 -0.0002121686706187661
-0.173121348 -0.1003156006 -0.0001707162937975925 -0.00015344476217907238
-0.16779989 -0.1003156006 -0.0001840199265963049 -9.858076132733982e-05
-0.1624784321 -0.1003156006 -0.000207370278147743 -3.435410668692023e-05
-0.1571569741 -0.1003156006 -0.000238245065927079 1.650373656272891e-05
-0.1518355161 -0.1003156006 -0.0002757269693458468 6.46482245274556e-05
-0.1465140581 -0.1003156006 -0.00032032663023773516 0.00011376968812636095
-0.1411926001 -0.1003156006 -0.00035892351428111957 0.00014951753498137859
-0.1358711421 -0.1003156006 -0.00039468002161846717 0.00016042170568459412
-0.1305496842 -0.1003156006 -0.0004319022717129698 0.00017125450778440006
-0.1252282262 -0.1003156006 -0.0004668262727681541 0.0001813509138732405
-0.1199067682 -0.1003156006 -0.0005058297865583286 0.0001948920225844672
-0.1145853102 -0.1003156006 -0.0005502478779453663 0.0002104022220575179
-0.1092638522 -0.1003156006 -0.0005945201364091433 0.00022813625828778527
-0.1039423943 -0.1003156006 -0.0006392385274568423 0.0002440441777811987
-0.09862093627 -0.1003156006 -0.0006833644477231862 0.0002482633119186452
-0.09329947084 -0.1003156006 -0.0007289589119160517 0.0002491951309596309
-0.08797801286 -0.1003156006 -0.0007766855170248001 0.00025010394620816613
-0.08265655488 -0.1003156006 -0.0008234012406103128 0.0002501365780493007
-0.0773350969 -0.1003156006 -0.0008608329731451614 0.00023348886070998049
-0.07201363891 -0.1003156006 -0.0008924622730364168 0.00021690887406774784
-0.06669218093 -0.1003156006 -0.0009226941761690405 0.00020030946884378123
-0.06137072667 -0.1003156006 -0.0009624624749492787 0.00018146038565716805
-0.05604926869 -0.1003156006 -0.0009846508646117055 0.00016422908347200606
-0.05072781071 -0.1003156006 -0.0010072297894965303 0.00014772900532910994
-0.045406349 -0.1003156006 -0.0010289535843047445 0.00013174585258143013
-0.04008489102 -0.1003156006 -0.0010563155622112849 0.00011470531053580584
-0.03476343304 -0.1003156006 -0.001075475844252123 9.936033333720282e-05
-0.02944197692 -0.1003156006 -0.0010852994042471944 8.824586985196241e-05
-0.02412051894 -0.1003156006 -0.0011022021386236746 7.722140302592483e-05
-0.01879905909 -0.1003156006 -0.0011140864793490934 6.616034707930905e-05
-0.01347760204 -0.1003156006 -0.0011292101312269389 5.51205897292198e-05
-0.00815614406 -0.1003156006 -0.0011356552989615339 3.601562436247195e-05
-0.00283468538 -0.1003156006 -0.0011367731637873526 1.0702015717950308e-05
0.002486772602 -0.1003156006 -0.0011392799624964098 -1.703576347903875e-05
0.007808230817 -0.1003156006 -0.001137374204588235 -4.486368179881875e-05
0.0131296888 -0.1003156006 -0.0011391700099956357 -7.058229278283481e-05
0.01845114678 -0.1003156006 -0.0011256613917326765 -8.622890716240225e-05
0.02377260476 -0.1003156006 -0.0010941542387481822 -9.437988691778197e-05
0.02909406275 -0.1003156006 -0.001062663638934181 -0.00010336046144644563
0.03441552073 -0.1003156006 -0.0010333363535532808 -0.00011224145352677498
0.03973697871 -0.1003156006 -0.0010040601517140291 -0.00012052425216615485
0.04505843669 -0.1003156006 -0.0009792943967578723 -0.00011282295535042801
0.05037989467 -0.1003156006 -0.0009764311075044706 -7.297561596678295e-05
0.05570135266 -0.1003156006 -0.0009560070361019231 -3.015264575800303e-05
0.06102281436 -0.1003156006 -0.0009471316439409521 1.335940658435632e-05
0.06634426862 -0.1003156006 -0.0009349607878048595 5.422053253098655e-05
0.0716657266 -0.1003156006 -0.0009273721305283609 9.351560203645301e-05
0.07698718458 -0.1003156006 -0.0009685338529718773 0.00010403431877660932
0.08230864257 -0.1003156006 -0.0010164955549158022 0.00011242101756909527
0.08763010055 -0.1003156006 -0.0010691453574982438 0.00012073666502819898
0.09295155853 -0.1003156006 -0.0011180821807820342 0.0001287568722354749
0.09827301651 -0.1003156006 -0.0011677533523119573 0.00013690726176619032
0.1035944745 -0.1003156006 -0.0012093202054502298 0.0001255293711450308
0.1089159325 -0.1003156006 -0.0012217494572633854 7.266156335251308e-05
0.1142373979 -0.1003156006 -0.0012358485419907334 1.9631653919951037e-05
0.1195588559 -0.1003156006 -0.0012511764920873456 -2.844634729579715e-05
0.1248803139 -0.1003156006 -0.001263787580340863 -7.844395339351832e-05
0.1302017719 -0.1003156006 -0.0012769267345639607 -0.0001296741480472601
0.1355232298 -0.1003156006 -0.0012624846609503293 -0.00016656774760052706
0.1408446878 -0.1003156006 -0.0012247526363111884 -0.0001921888588165126
0.1461661458 -0.1003156006 -0.0011922323752899088 -0.00021691853216024878
0.1514876038 -0.1003156006 -0.0011578915401803925 -0.00024177671739784696
0.1568090618 -0.1003156006 -0.0011194425610659866 -0.0002665484738122677
0.1621305197 -0.1003156006 -0.001084709617256695 -0.00029134210954863854
0.1674519777 -0.1003156006 -0.001049538877831833 -0.00030227135451402334
0.1727734357 -0.1003156006 -0.0010206192867082027 -0.0003064694631052345
0.1780948937 -0.1003156006 -0.0009861827695844471 -0.00031144613118537815
0.1834163517 -0.1003156006 -0.0009548927976198445 -0.0003161996065176972
0.1887378097 -0.1003156006 -0.0009248090503810501 -0.0003197603070164809
0.1940592676 -0.1003156006 -0.0008929567594818016 -0.000320948731163496
0.1993807256 -0.1003156006 -0.0008599686127557669 -0.00030509285781742373
0.2047021836 -0.1003156006 -0.0008269440298209079 -0.00028311054128486593
0.2100236416 -0.1003156006 -0.0007938261454963885 -0.00026066239577673993
0.2153450996 -0.1003156006 -0.000762953945811365 -0.00023900516841905822
0.2206665576 -0.1003156006 -0.0007265895319050136 -0.00021679202684390207
0.2259880155 -0.1003156006 -0.0006938315993280073 -0.00019487435385911388
0.2313094735 -0.1003156006 -0.0006748685278066772 -0.00015711155766375427
0.2366309315 -0.1003156006 -0.0006694011778135511 -0.00011898318489622894
0.2419523895 -0.1003156006 -0.0006567204544882608 -8.267415012035251e-05
0.2472738475 -0.1003156006 -0.0006482367475661817 -4.6791156566243226e-05
0.2525953054 -0.1003156006 -0.0006328483526844844 -1.2093543508662207e-05
0.2579167783 -0.1003156006 -0.000628555193911286 2.2043393621861246e-05
0.2632382214 -0.1003156006 -0.0006303582829276139 3.920705802182954e-05
0.2685596943 -0.1003156006 -0.0006420425923035754 5.197371402950499e-05
0.2738811374 -0.1003156006 -0.0006512088398291659 6.54147223452878e-05
0.2792026103 -0.1003156006 -0.0006627990086224966 7.819953649758548e-05
0.2845240533 -0.1003156006 -0.0006667980274365263 9.075068463746499e-05
0.2898455262 -0.1003156006 -0.0006757253542900572 0.00010333609001059234
0.2951669693 -0.1003156006 -0.000676825199843336 0.00010303822173104364
0.3004884422 -0.1003156006 -0.0006762622297296018 0.0001006611334159329
0.3058098853 -0.1003156006 -0.0006758961020182686 0.00010063311960117244
0.3111313581 -0.1003156006 -0.0006796244339461271 0.00010068141798186802
0.3164528012 -0.1003156006 -0.0006849724263033601 0.00010034434190296261
0.3217742741 -0.1003156006 -0.0006829427921030871 9.981360539411068e-05
0.3270957172 -0.1003156006 -0.000667097954139037 9.481314895093464e-05
0.3324171901 -0.1003156006 -0.0006490475822004527 9.00203277224151e-05
0.3377386332 -0.1003156006 -0.0006327636253472662 8.3887497905666e-05
0.343060106 -0.1003156006 -0.0006179964832225951 7.796462104979743e-05
0.3483815491 -0.1003156006 -0.0005965481985551017 7.348255706220292e-05
0.353703022 -0.1003156006 -0.0005750799340509268 7.294897608546626e-05
0.3590244651 -0.1003156006 -0.0005488597501675075 8.178247417722342e-05
0.364345938 -0.1003156006 -0.0005189069314760663 9.068974655164162e-05
0.369667381 -0.1003156006 -0.0004981599889402523 9.864870949209133e-05
0.3749888539 -0.1003156006 -0.00046552379374597685 0.00010658931266642134
0.380310297 -0.1003156006 -0.0004401531173148153 0.00011527019744714517
0.3856317699 -0.1003156006 -0.000424640439555459 0.00012504256757108268
0.390953213 -0.1003156006 -0.0004033219768157091 0.0001347665673661011
0.3962746859 -0.1003156006 -0.0003844228830861336 0.00014459701489670827
0.4015961289 -0.1003156006 -0.0003685534434048258 0.00015444689514598065
0.4069176018 -0.1003156006 -0.00035662036074962905 0.00016434008374866077
0.4122390449 -0.1003156006 -0.0003337923793853782 0.00016734513219524564
0.4175605178 -0.1003156006 -0.00031627440249316235 0.00016122426687039835
0.4228819609 -0.1003156006 -0.0002970203723474409 0.0001532251880264003
0.4282034338 -0.1003156006 -0.0002798373562415421 0.00014691057304310268
0.4335248768 -0.1003156006 -0.00025782263069551627 0.00014197416400812783
0.4388463497 -0.1003156006 -0.00022840779609821868 0.00013768795420189968
0.4441677928 -0.1003156006 -0.00018366225733015736 0.00013584914520413323
0.4494892657 -0.1003156006 -0.00013532563272691597 0.00013446103544154423
0.4548107088 -0.1003156006 -9.274388559202106e-05 0.000134417383163263
0.4601321816 -0.1003156006 -4.6364417974945384e-05 0.00013384604218274644
0.4654536247 -0.1003156006 1.0139304268604698e-06 0.00013927859414984185
0.4707750976 -0.1003156006 5.163063518363884e-05 0.00015743450073969138
0.4760965407 -0.1003156006 0.00010382078669570187 0.0001740509858810194
0.4814180136 -0.1003156006 0.00015453729191705414 0.00019170386612620943
0.4867394567 -0.1003156006 0.00019985024861701582 0.0002087817129409994
0.4920609295 -0.1003156006 0.00024627423112407067 0.00023383761008072347
0.4973823726 -0.1003156006 0.00028221608296130266 0.0002606767036913857
0.5027038455 -0.1003156006 0.00032058547303672857 0.00028745107622365053
0.5080252886 -0.1003156006 0.0003589674239556729 0.00031421731321743315
0.5133467317 -0.1003156006 0.0003862828582745764 0.0003373175313883288
0.5186682343 -0.1003156006 0.00041969221020192834 0.00035978436324730234
0.5239896774 -0.1003156006 0.0004539247876791562 0.0003814043257605032
0.5293111205 -0.1003156006 0.00048058848384707894 0.00040345515097861556
0.5346325636 -0.1003156006 0.0005158487745059837 0.000419387808575826
0.5399540663 -0.1003156006 0.0005449076576226512 0.00042991859293565847
0.5452755094 -0.1003156006 0.0005774877413393422 0.0004403354052791968
0.5505969524 -0.1003156006 0.0006094183111456288 0.0004509802613195953
0.5559183955 -0.1003156006 0.0006521513268132922 0.00045761076799866483
0.5612398982 -0.1003156006 0.0006967298691460055 0.00046034015868009353
0.5665613413 -0.1003156006 0.00074426532936968 0.0004635482258775531
0.5718827844 -0.1003156006 0.0007927771866530768 0.00046934560048297614
0.5772042274 -0.1003156006 0.0008455815449467653 0.0004716358471523859
0.5825257301 -0.1003156006 0.0009005529029807611 0.0004725286873756959
0.5878471732 -0.1003156006 0.000956133025320379 0.00047697942510964544
0.5931686163 -0.1003156006 0.0010211557776434565 0.00048108728583220924
0.5984900594 -0.1003156006 0.001077536480354561 0.0004857621518287565
0.6038115621 -0.1003156006 0.0011410037656387042 0.0004909251220936135
0.6091330051 -0.1003156006 0.0012051028983763716 0.0004976458816991307
0.6144544482 -0.1003156006 0.001276110827920562 0.0005021986919438205
0.6197758913 -0.1003156006 0.001346942519953992 0.0005059426283679791
0.625097394 -0.1003156006 0.001423901922437104 0.0005079126115874494
0.6304188371 -0.1003156006 0.0014972407628411918 0.0005069154940123059
0.6357402802 -0.1003156006 0.0015734499365503357 0.000504541174512158
0.6410617828 -0.1003156006 0.0016467929233239841 0.0004961924463483254
0.6463832259 -0.1003156006 0.0017296379098887663 0.00048673936607933083
0.651704669 -0.1003156006 0.001817452788072237 0.00047315940358104517
0.6570261121 -0.1003156006 0.001912930576100765 0.00045688952832434535
0.6623476148 -0.1003156006 0.002005054362659671 0.0004312913238715992
0.6676690578 -0.1003156006 0.0021066000401289385 0.00040071476190827046
0.6729905009 -0.1003156006 0.0022158248264638122 0.00036341378735688573
0.678311944 -0.1003156006 0.002335903093269101 0.00032279856869417206
0.6836334467 -0.1003156006 0.002474489492414857 0.00027640245641875547
0.6889548898 -0.1003156006 0.002619955010986082 0.000217449715626902
0.6942763329 -0.1003156006 0.0027829383546252554 0.0001489308453797302
0.6995977759 -0.1003156006 0.0029639434160905194 7.569610744261724e-05
0.7049192786 -0.1003156006 0.0031552656091133136 9.697289589029668e-07
0.7102407217 -0.1003156006 0.0033775910362947538 -7.334142975313209e-05
0.7155621648 -0.1003156006 0.003634596405781124 -0.0001512638249416901
0.7208836079 -0.1003156006 0.0039116658185999725 -0.00023237583936858917
0.7262051105 -0.1003156006 0.004215567314847369 -0.00031367409318612023
0.7315265536 -0.1003156006 0.004548461220081859 -0.0003867293139019023
0.7368479967 -0.1003156006 0.00493018476846069 -0.000453123726732432
0.7421694398 -0.1003156006 0.005334840185546494 -0.0005054599344390006
0.7474909425 -0.1003156006 0.005757677815405789 -0.0005306531576868559
0.7528123856 -0.1003156006 0.006242858243454891 -0.0005402626181463492
0.7581338286 -0.1003156006 0.006760633398181935 -0.0005225062797646549
-0.3008363545 -0.09699654579 -0.0002790047889082153 -0.0004355151760920557
-0.2955148816 -0.09699654579 -0.00027404677768358394 -0.00040902020550510844
-0.2901934385 -0.09699654579 -0.00027099935904780766 -0.0004017367733157813
-0.2848719656 -0.09699654579 -0.00028139222128006604 -0.00039534975235913384
-0.2795505226 -0.09699654579 -0.0002944886722756639 -0.00039177993868009614
-0.2742290497 -0.09699654579 -0.00028694976932642287 -0.00038177305244560544
-0.2689076066 -0.09699654579 -0.00025303836479615755 -0.00036864155883300245
-0.2635861337 -0.09699654579 -0.000244861434068902 -0.0003680007634430554
-0.2582646906 -0.09699654579 -0.0002834692381218141 -0.00039050605409424703
-0.2529432178 -0.09699654579 -0.0003045045578816123 -0.0004251815790707592
-0.2476217598 -0.09699654579 -0.0003069605168213784 -0.0004757803377432947
-0.2423003018 -0.09699654579 -0.00031309216634829815 -0.0005127560188575943
-0.2369788438 -0.09699654579 -0.00032168047679910104 -0.0005077768118832576
-0.2316573858 -0.09699654579 -0.0003274787424577808 -0.0004952896640574713
-0.2263359278 -0.09699654579 -0.00030956790679090925 -0.00045837814750608987
-0.2210144699 -0.09699654579 -0.00024523320021675087 -0.00045062352598205813
-0.2156930119 -0.09699654579 -0.00017561361089309222 -0.0004450398177996275
-0.2103715539 -0.09699654579 -0.00010737247202996142 -0.00046194134524672547
-0.2050500959 -0.09699654579 -0.00010742983638685048 -0.0004531996881839275
-0.1997286379 -0.09699654579 -0.00014389134458460745 -0.00042972938498390733
-0.19440718 -0.09699654579 -0.00018691801089933002 -0.0004020566280525907
-0.189085722 -0.09699654579 -0.00017060803486211492 -0.00034920963659273996
-0.183764264 -0.09699654579 -0.00013281795442822309 -0.0002884151671244336
-0.178442806 -0.09699654579 -9.066526642035164e-05 -0.00022431041881723485
-0.173121348 -0.09699654579 -9.352226769417725e-05 -0.00016320630606670038
-0.16779989 -0.09699654579 -0.00012181070086585163 -9.509875406228229e-05
-0.1624784321 -0.09699654579 -0.0001564254896832967 -2.1849507631217023e-05
-0.1571569741 -0.09699654579 -0.00020397950112824347 3.7863909222219154e-05
-0.1518355161 -0.09699654579 -0.00025443238393607084 8.735415866146209e-05
-0.1465140581 -0.09699654579 -0.0003078538834119071 0.00013554292835732396
-0.1411926001 -0.09699654579 -0.0003584945492177603 0.00017297270571576723
-0.1358711421 -0.09699654579 -0.0003915853288666881 0.0001830092908471305
-0.1305496842 -0.09699654579 -0.0004247035248889235 0.00019280879986833594
-0.1252282262 -0.09699654579 -0.0004644220776446213 0.00020354989145742296
-0.1199067682 -0.09699654579 -0.000512520040849484 0.00022157111447067623
-0.1145853102 -0.09699654579 -0.0005647353811098477 0.0002410007479889885
-0.1092638522 -0.09699654579 -0.000618549745374068 0.00026131690761708255
-0.1039423943 -0.09699654579 -0.0006688664107485028 0.00028285308524777825
-0.09862093627 -0.09699654579 -0.0007236777970334045 0.0002845515595275448
-0.09329947084 -0.09699654579 -0.0007693705035432466 0.0002860442230170796
-0.08797801286 -0.09699654579 -0.0008222586299007904 0.00028730288933415436
-0.08265655488 -0.09699654579 -0.0008708387573255568 0.0002879176740243239
-0.0773350969 -0.09699654579 -0.0009030365229737552 0.0002684034423193559
-0.07201363891 -0.09699654579 -0.0009353292668257965 0.00024711840631616594
-0.06669218093 -0.09699654579 -0.0009716106675959559 0.0002259663305025881
-0.06137072667 -0.09699654579 -0.0010112914582506402 0.00020579773545873828
-0.05604926869 -0.09699654579 -0.0010435414278594179 0.00018604327614529917
-0.05072781071 -0.09699654579 -0.0010629438080926419 0.0001685895156826693
-0.045406349 -0.09699654579 -0.001090621139383187 0.00015117692162912284
-0.04008489102 -0.09699654579 -0.0011158316913905343 0.00013113113789350102
-0.03476343304 -0.09699654579 -0.001135297059642009 0.0001118306397277932
-0.02944197692 -0.09699654579 -0.001151936279161873 9.953275746742215e-05
-0.02412051894 -0.09699654579 -0.0011668965396661078 8.755864507547647e-05
-0.01879905909 -0.09699654579 -0.0011770015786250608 7.534579550580262e-05
-0.01347760204 -0.09699654579 -0.001193771130313097 6.259316689542318e-05
-0.00815614406 -0.09699654579 -0.0012021592064204844 4.045848482134335e-05
-0.00283468538 -0.09699654579 -0.0011967885304259656 1.1113201127392846e-05
0.002486772602 -0.09699654579 -0.0011998847176768407 -1.8889640491005042e-05
0.007808230817 -0.09699654579 -0.0011990370436481999 -4.902547203041594e-05
0.0131296888 -0.09699654579 -0.0011952964080601887 -7.869738475007437e-05
0.01845114678 -0.09699654579 -0.0011783056768793203 -9.716266422558452e-05
0.02377260476 -0.09699654579 -0.001136095866740601 -0.00010712985036623217
0.02909406275 -0.09699654579 -0.0011007212716192788 -0.00011775820398517545
0.03441552073 -0.09699654579 -0.001059317412045492 -0.00012842416936564337
0.03973697871 -0.09699654579 -0.0010258272565548308 -0.00013842908134856894
0.04505843669 -0.09699654579 -0.0009992812560348362 -0.0001286146510963436
0.05037989467 -0.09699654579 -0.000980955165010093 -8.061907109854596e-05
0.05570135266 -0.09699654579 -0.0009679737412883284 -3.224904691169192e-05
0.06102281436 -0.09699654579 -0.0009501177963799379 1.8415163890285392e-05
0.06634426862 -0.09699654579 -0.0009359662776987705 6.563562974511508e-05
0.0716657266 -0.09699654579 -0.0009224099282118102 0.00011296583306569011
0.07698718458 -0.09699654579 -0.0009744057841726347 0.00012493093308712342
0.08230864257 -0.09699654579 -0.001037596212725567 0.00013488228171189707
0.08763010055 -0.09699654579 -0.001095335059344847 0.00014428883040300318
0.09295155853 -0.09699654579 -0.0011524957199714058 0.00015360893243157424
0.09827301651 -0.09699654579 -0.0012076128876422603 0.0001632458259232635
0.1035944745 -0.09699654579 -0.001255811147219879 0.00014845496072539484
0.1089159325 -0.09699654579 -0.0012706848531480774 8.758385576574636e-05
0.1142373979 -0.09699654579 -0.0012914231850197414 2.966537883859354e-05
0.1195588559 -0.09699654579 -0.0013121047035347464 -2.6350693204758986e-05
0.1248803139 -0.09699654579 -0.001325238709690971 -8.223478296445048e-05
0.1302017719 -0.09699654579 -0.0013435925147677 -0.00013992081061433965
0.1355232298 -0.09699654579 -0.0013248795807631174 -0.0001798770125431685
0.1408446878 -0.09699654579 -0.0012872092094300793 -0.00020632083345678527
0.1461661458 -0.09699654579 -0.001246213792295929 -0.000233239756237681
0.1514876038 -0.09699654579 -0.0012054568408400165 -0.00025939389229008336
0.1568090618 -0.09699654579 -0.0011627032437600791 -0.0002861197961223498
0.1621305197 -0.09699654579 -0.0011229659561078245 -0.00031186635367516576
0.1674519777 -0.09699654579 -0.0010939134964585257 -0.0003219096033264852
0.1727734357 -0.09699654579 -0.0010510986622552063 -0.0003255527452312808
0.1780948937 -0.09699654579 -0.0010138022321931513 -0.0003285051375960661
0.1834163517 -0.09699654579 -0.0009750343913901476 -0.0003315807566977101
0.1887378097 -0.09699654579 -0.0009424067706383717 -0.00033662038078156235
0.1940592676 -0.09699654579 -0.0009095904041737706 -0.00034169526373018
0.1993807256 -0.09699654579 -0.0008715165393380648 -0.00032580770809259883
0.2047021836 -0.09699654579 -0.000833685398170819 -0.0003047730984840434
0.2100236416 -0.09699654579 -0.0007967042708702277 -0.0002864246744391211
0.2153450996 -0.09699654579 -0.0007632812202858458 -0.00026883069405517185
0.2206665576 -0.09699654579 -0.0007275724577608801 -0.00025080503464546336
0.2259880155 -0.09699654579 -0.0006938367117758861 -0.00023302244609535225
0.2313094735 -0.09699654579 -0.0006809668449784259 -0.00019449143240533284
0.2366309315 -0.09699654579 -0.0006730189630956311 -0.0001482665718447857
0.2419523895 -0.09699654579 -0.0006645512553423213 -0.00010179418570724665
0.2472738475 -0.09699654579 -0.0006584545803016438 -5.560699550564979e-05
0.2525953054 -0.09699654579 -0.0006423994882137649 -1.3794330112271911e-05
0.2579167783 -0.09699654579 -0.0006316447585204192 2.5190212434927902e-05
0.2632382214 -0.09699654579 -0.0006459408338805528 4.4481275247094034e-05
0.2685596943 -0.09699654579 -0.0006546680878075551 5.9358514171524574e-05
0.2738811374 -0.09699654579 -0.000671027572798176 7.284881684760104e-05
0.2792026103 -0.09699654579 -0.0006750211185644376 8.439079149346929e-05
0.2845240533 -0.09699654579 -0.000685042376401343 9.653717920654876e-05
0.2898455262 -0.09699654579 -0.0006927788468046301 0.0001095447381061208
0.2951669693 -0.09699654579 -0.0006924816232014583 0.00010406170140373984
0.3004884422 -0.09699654579 -0.0006988409530615883 9.862810360454572e-05
0.3058098853 -0.09699654579 -0.0006933299602976455 9.515034963380365e-05
0.3111313581 -0.09699654579 -0.0007004334580978808 9.183289707959682e-05
0.3164528012 -0.09699654579 -0.000702689064263602 8.873465906060956e-05
0.3217742741 -0.09699654579 -0.0007043763654266749 8.774684901902897e-05
0.3270957172 -0.09699654579 -0.0006897796406857154 8.032024582278201e-05
0.3324171901 -0.09699654579 -0.0006666245460860857 7.307276057888737e-05
0.3377386332 -0.09699654579 -0.0006514442189202859 6.689405070397775e-05
0.343060106 -0.09699654579 -0.0006244055465850954 6.153303766593928e-05
0.3483815491 -0.09699654579 -0.0006084852776815539 5.422524448522252e-05
0.353703022 -0.09699654579 -0.0005914108898911048 5.394094275961372e-05
0.3590244651 -0.09699654579 -0.0005624630220392538 6.443520310348802e-05
0.364345938 -0.09699654579 -0.0005232685093918719 7.452606944266275e-05
0.369667381 -0.09699654579 -0.0004942692861201336 8.383790977509439e-05
0.3749888539 -0.09699654579 -0.0004689622837852314 9.383326483946974e-05
0.380310297 -0.09699654579 -0.0004424327566568744 0.00010266592994180762
0.3856317699 -0.09699654579 -0.00042332924488827693 0.0001130607795428606
0.390953213 -0.09699654579 -0.00041198533051364143 0.0001245816705382829
0.3962746859 -0.09699654579 -0.00039524143658311016 0.00013725680727767037
0.4015961289 -0.09699654579 -0.0003843220209954013 0.00014808436451631726
0.4069176018 -0.09699654579 -0.0003636339207589228 0.00015831648421560024
0.4122390449 -0.09699654579 -0.00034766263269719823 0.00015978214838542046
0.4175605178 -0.09699654579 -0.00032734429831474956 0.0001490754649588088
0.4228819609 -0.09699654579 -0.00030628054026756433 0.00014037611520458407
0.4282034338 -0.09699654579 -0.0002862972967377274 0.00013253328706247985
0.4335248768 -0.09699654579 -0.00026741643575969783 0.0001235720311660514
0.4388463497 -0.09699654579 -0.00023988418488128093 0.0001155243793095911
0.4441677928 -0.09699654579 -0.00018814027761452677 0.00011181432836263301
0.4494892657 -0.09699654579 -0.00014284246626252676 0.00010818154639375939
0.4548107088 -0.09699654579 -9.902926011401825e-05 0.00010412077814709842
0.4601321816 -0.09699654579 -4.876476960551283e-05 0.00010051651378496459
0.4654536247 -0.09699654579 -7.235337657366116e-06 0.00010775749861392821
0.4707750976 -0.09699654579 5.288262892733517e-05 0.00012601673043835174
0.4760965407 -0.09699654579 0.00010744557213871733 0.00014420613853927851
0.4814180136 -0.09699654579 0.0001612338715732239 0.0001620854482415902
0.4867394567 -0.09699654579 0.00020973347760564834 0.00017996427841622376
0.4920609295 -0.09699654579 0.0002533703353287359 0.00020727398928368715
0.4973823726 -0.09699654579 0.00028905628128607987 0.00023668047893984608
0.5027038455 -0.09699654579 0.00032964433564259686 0.00026465124349733376
0.5080252886 -0.09699654579 0.00036683421715649024 0.00029292949151625276
0.5133467317 -0.09699654579 0.00039877917219532184 0.0003186560450334002
0.5186682343 -0.09699654579 0.0004272526993762765 0.0003413793583715723
0.5239896774 -0.09699654579 0.0004525091402980786 0.00036273176206834087
0.5293111205 -0.09699654579 0.0004826246017113124 0.00038551504183949764
0.5346325636 -0.09699654579 0.0005136515219097867 0.0004012887797645009
0.5399540663 -0.09699654579 0.0005458875573473888 0.0004114868050745768
0.5452755094 -0.09699654579 0.0005730611212371861 0.0004211005180704079
0.5505969524 -0.09699654579 0.0006069843077257897 0.0004314078896893894
0.5559183955 -0.09699654579 0.000645591684821685 0.000433467190283123
0.5612398982 -0.09699654579 0.0006971927154254943 0.0004364084459685221
0.5665613413 -0.09699654579 0.00074057200800676 0.00043880484919179663
0.5718827844 -0.09699654579 0.0007877694799665545 0.000438629593581237
0.5772042274 -0.09699654579 0.0008434145946176485 0.00043905264371239735
0.5825257301 -0.09699654579 0.0008988562442696036 0.00043981434960380924
0.5878471732 -0.09699654579 0.0009590320032725459 0.00044036818185794
0.5931686163 -0.09699654579 0.0010126943545966966 0.00044332761242927735
0.5984900594 -0.09699654579 0.0010812441963541613 0.00044531429241351857
0.6038115621 -0.09699654579 0.0011434903714130976 0.00044988513178847365
0.6091330051 -0.09699654579 0.001209547447172948 0.000454753276991898
0.6144544482 -0.09699654579 0.0012749039033580494 0.00045887379063665385
0.6197758913 -0.09699654579 0.001349578416266869 0.00046244316718582664
0.625097394 -0.09699654579 0.0014201966016006847 0.0004647252060293822
0.6304188371 -0.09699654579 0.0014972346182873229 0.0004618882474346359
0.6357402802 -0.09699654579 0.0015698199781238582 0.00045740919810559853
0.6410617828 -0.09699654579 0.0016394577681495925 0.00045163243577770953
0.6463832259 -0.09699654579 0.001719057430525962 0.00043762023912218185
0.651704669 -0.09699654579 0.0017984138268086441 0.0004219970118811228
0.6570261121 -0.09699654579 0.00188989328434348 0.0003994352300362889
0.6623476148 -0.09699654579 0.001984025814674839 0.0003716840645793505
0.6676690578 -0.09699654579 0.002077795124776675 0.00033279191959356246
0.6729905009 -0.09699654579 0.002186545863361833 0.00029382719562682136
0.678311944 -0.09699654579 0.0023010338369822353 0.0002459984279593936
0.6836334467 -0.09699654579 0.0024311145475496643 0.0001915244205821644
0.6889548898 -0.09699654579 0.0025749686581751996 0.00012817811138142994
0.6942763329 -0.09699654579 0.0027269726954080088 4.981841275132133e-05
0.6995977759 -0.09699654579 0.002899603498627215 -3.9294060434125796e-05
0.7049192786 -0.09699654579 0.0030947988201156028 -0.0001289813468015599
0.7102407217 -0.09699654579 0.0033140961411594378 -0.00021794447862633217
0.7155621648 -0.09699654579 0.0035694670298829978 -0.00031279339547869543
0.7208836079 -0.09699654579 0.0038513291204673268 -0.0004169238472980722
0.7262051105 -0.09699654579 0.004166167162940741 -0.0005176140007754674
0.7315265536 -0.09699654579 0.004498612682297395 -0.0006112151303350368
0.7368479967 -0.09699654579 0.004883645861786253 -0.0007003417741445201
0.7421694398 -0.09699654579 0.005296510749706081 -0.000769768088098658
0.7474909425 -0.09699654579 0.005755514373584368 -0.0008272754564923939
0.7528123856 -0.09699654579 0.00625764380714205 -0.0008605360445662801
0.7581338286 -0.09699654579 0.00678612425537248 -0.0008553891917705266
-0.3008363545 -0.09367749095 -0.0003029993742021783 -0.0004283205441872486
-0.2955148816 -0.09367749095 -0.00029750104723494337 -0.00040496099939237387
-0.2901934385 -0.09367749095 -0.00027964090197202626 -0.00039464780417948226
-0.2848719656 -0.09367749095 -0.0002928495351661615 -0.00039524440809287264
-0.2795505226 -0.09367749095 -0.00029872687210210085 -0.00039090134926790635
-0.2742290497 -0.09367749095 -0.0002806773334780126 -0.00038029860817343983
-0.2689076066 -0.09367749095 -0.0002610372701327881 -0.00036938812419722115