VARIABLES = X,Y,phix,phiy
ZONE I=200,J=200,F=POINT 
-0.3008363545 -0.1003156006 -0.0004951247663572085 0.00014307068536228233
-0.2955148816 -0.1003156006 -0.0004495340148165718 6.675920998707512e-05
-0.2901934385 -0.1003156006 -0.0004268264032379134 2.817681602400799e-06
-0.2848719656 -0.1003156006 -0.00041011573933451696 -6.253350423242451e-05
-0.2795505226 -0.1003156006 -0.0003732072734835468 -0.00012847578387570227
-0.2742290497 -0.1003156006 -0.0002922485262845921 -0.0002125292934734482
-0.2689076066 -0.1003156006 -0.0001722645222859881 -0.0002878497081571967
-0.2635861337 -0.1003156006 -7.071502784267828e-05 -0.0002670625824432956
-0.2582646906 -0.1003156006 7.079210625051994e-06 -0.00020184753752295492
-0.2529432178 -0.1003156006 0.00011637424729802876 -9.987262893193187e-05
-0.2476217598 -0.1003156006 0.0002734429885650818 4.595648476094636e-05
-0.2423003018 -0.1003156006 0.0002968921036642028 0.0001345610832996667
-0.2369788438 -0.1003156006 0.00019124728150495297 0.00017845961473720033
-0.2316573858 -0.1003156006 7.380929414656546e-05 0.00023881779309357885
-0.2263359278 -0.1003156006 -6.884034108077317e-05 0.00029440770405249247
-0.2210144699 -0.1003156006 -0.00015485058118824504 0.0002833091067102638
-0.2156930119 -0.1003156006 -0.00025233813095175954 0.00023652487782238631
-0.2103715539 -0.1003156006 -0.0003622851284845059 0.00014076968307783524
-0.2050500959 -0.1003156006 -0.00015946216121921563 6.678088574427832e-05
-0.1997286379 -0.1003156006 4.9944952831608564e-05 1.621089487421444e-05
-0.19440718 -0.1003156006 0.0002902480621611228 -4.4468536320437166e-05
-0.189085722 -0.1003156006 0.00025814437659210237 -8.49820856301913e-06
-0.183764264 -0.1003156006 0.00018751402122566137 7.35576015603919e-06
-0.178442806 -0.1003156006 0.00011999403575150538 3.2617602641891044e-05
-0.173121348 -0.1003156006 0.0001850431134037785 6.562594258524432e-05
-0.16779989 -0.1003156006 0.00026563725464859224 0.00010311758088202625
-0.1624784321 -0.1003156006 0.0003607116899275505 0.00011402589284822882
-0.1571569741 -0.1003156006 0.00040767043932184914 0.00014820850857520247
-0.1518355161 -0.1003156006 0.0004119302975244914 0.0002054047315999261
-0.1465140581 -0.1003156006 0.00041811271377304213 0.0002667176804674037
-0.1411926001 -0.1003156006 0.00040249744060078245 0.00032419590810295557
-0.1358711421 -0.1003156006 0.0003551042218381803 0.000365675526925315
-0.1305496842 -0.1003156006 0.00031055975218607755 0.0004070324335656826
-0.1252282262 -0.1003156006 0.00025527558359745385 0.000446836141402269
-0.1199067682 -0.1003156006 0.00021205877334192402 0.00046325423365088615
-0.1145853102 -0.1003156006 0.0001769225444704808 0.00047300471373361985
-0.1092638522 -0.1003156006 0.0001397681595036497 0.00047971022947446666
-0.1039423943 -0.1003156006 0.00010351578315445303 0.00048663574849872206
-0.09862093627 -0.1003156006 8.518096178290417e-05 0.0004772725122435849
-0.09329947084 -0.1003156006 6.619169440679185e-05 0.0004662379480918509
-0.08797801286 -0.1003156006 4.891558740240052e-05 0.0004552746781130943
-0.08265655488 -0.1003156006 2.881428176322219e-05 0.00044418052614605784
-0.0773350969 -0.1003156006 1.8600150388776537e-05 0.00044340510397810587
-0.07201363891 -0.1003156006 3.0003090810887717e-06 0.0004430327849301703
-0.06669218093 -0.1003156006 -1.0102859865103168e-05 0.00044235195891708306
-0.06137072667 -0.1003156006 -2.8144670322902007e-05 0.00044282364947117976
-0.05604926869 -0.1003156006 -3.408832123324461e-05 0.00044516872504067855
-0.05072781071 -0.1003156006 -3.914908082662588e-05 0.0004477885954456511
-0.045406349 -0.1003156006 -4.307773894483545e-05 0.0004504423294385179
-0.04008489102 -0.1003156006 -4.9508854792194215e-05 0.0004533045251135167
-0.03476343304 -0.1003156006 -5.723575156132529e-05 0.00045517675532767184
-0.02944197692 -0.1003156006 -7.104600086303708e-05 0.00045465658957574565
-0.02412051894 -0.1003156006 -8.609723934269609e-05 0.0004545185476127702
-0.01879905909 -0.1003156006 -0.00010423574674936213 0.00045474496267771617
-0.01347760204 -0.1003156006 -0.00011767696045516724 0.00045454416748588755
-0.00815614406 -0.1003156006 -0.0001440551966976098 0.0004548298402994104
-0.00283468538 -0.1003156006 -0.0001756002402951183 0.000455139078377403
0.002486772602 -0.1003156006 -0.0002095507422672778 0.0004551739684892764
0.007808230817 -0.1003156006 -0.00024534091242895073 0.00045545194833932927
0.0131296888 -0.1003156006 -0.0002806904994676457 0.00045560485336852176
0.01845114678 -0.1003156006 -0.0003035267123927217 0.00044399218609397247
0.02377260476 -0.1003156006 -0.0003209429676382082 0.0004227782940295224
0.02909406275 -0.1003156006 -0.0003351641306448158 0.0004004994991557957
0.03441552073 -0.1003156006 -0.0003519654160572845 0.0003781210379793426
0.03973697871 -0.1003156006 -0.0003703798847062451 0.000356692832003365
0.04505843669 -0.1003156006 -0.0003746579939836774 0.0003300389376243974
0.05037989467 -0.1003156006 -0.00034992140796914057 0.0002926081624780736
0.05570135266 -0.1003156006 -0.00032461997869471913 0.0002530181634886475
0.06102281436 -0.1003156006 -0.00030128328607041823 0.00021287447732101352
0.06634426862 -0.1003156006 -0.0002701476470509627 0.0001747996096019202
0.0716657266 -0.1003156006 -0.0002552337287472544 0.00013761328423614894
0.07698718458 -0.1003156006 -0.00022352567579477235 0.00013705785178287877
0.08230864257 -0.1003156006 -0.00018910961498570813 0.00013958587967666694
0.08763010055 -0.1003156006 -0.00015988027365536982 0.00014280376743015916
0.09295155853 -0.1003156006 -0.000125812057008569 0.00014542802908358156
0.09827301651 -0.1003156006 -9.74380718995309e-05 0.00014763952781749257
0.1035944745 -0.1003156006 -8.14918164996408e-05 0.00015361643839748035
0.1089159325 -0.1003156006 -9.242640030010982e-05 0.00016845836387845478
0.1142373979 -0.1003156006 -0.00010468383840835377 0.0001831852728639905
0.1195588559 -0.1003156006 -0.00011674581659830476 0.00019545077716858056
0.1248803139 -0.1003156006 -0.0001255020566145966 0.00020871920210445828
0.1302017719 -0.1003156006 -0.00014039426468229882 0.00022249947484217475
0.1355232298 -0.1003156006 -0.0001390787524238931 0.00021317141815422274
0.1408446878 -0.1003156006 -0.00013065896621964351 0.0001863898854946719
0.1461661458 -0.1003156006 -0.0001207473153109209 0.000162373615179932
0.1514876038 -0.1003156006 -0.00011355095938700541 0.00013804822041612496
0.1568090618 -0.1003156006 -0.00010092882219623592 0.00011371916572866271
0.1621305197 -0.1003156006 -9.977609412292038e-05 8.989793289046515e-05
0.1674519777 -0.1003156006 -7.286319028070323e-05 6.91187199815348e-05
0.1727734357 -0.1003156006 -3.807695704304241e-05 4.852617854477216e-05
0.1780948937 -0.1003156006 -8.041662299494343e-07 2.776525663569844e-05
0.1834163517 -0.1003156006 2.8702363485121797e-05 7.154540797714724e-06
0.1887378097 -0.1003156006 6.184144297969467e-05 -1.1051655568733201e-05
0.1940592676 -0.1003156006 9.239207824118653e-05 -2.4967651201697838e-05
0.1993807256 -0.1003156006 0.00011850932459323039 -1.7737708713757093e-05
0.2047021836 -0.1003156006 0.00015042617430478637 -3.988275604891096e-06
0.2100236416 -0.1003156006 0.00017405043470016305 9.581452430921302e-06
0.2153450996 -0.1003156006 0.00019896035405424619 2.59323812728443e-05
0.2206665576 -0.1003156006 0.00021594420253244847 4.1414366296627965e-05
0.2259880155 -0.1003156006 0.00024265224793826938 5.6964585897028897e-05
0.2313094735 -0.1003156006 0.00024715689145505084 9.499307358582342e-05
0.2366309315 -0.1003156006 0.00025323585264270756 0.00013391781383576207
0.2419523895 -0.1003156006 0.00024772900055337297 0.0001707720094580327
0.2472738475 -0.1003156006 0.0002494884137422448 0.00020680322380805732
0.2525953054 -0.1003156006 0.0002538493763853028 0.0002410638575465644
0.2579167783 -0.1003156006 0.00025431674203827575 0.00027761402909438925
0.2632382214 -0.1003156006 0.00022722037969802745 0.00030571750487982756
0.2685596943 -0.1003156006 0.00018650156861581987 0.00033133303067045327
0.2738811374 -0.1003156006 0.00014831770453559734 0.0003586476307975526
0.2792026103 -0.1003156006 0.00010377937423126148 0.0003848462766626843
0.2845240533 -0.1003156006 7.093915693285166e-05 0.0004069298047129594
0.2898455262 -0.1003156006 3.974143493412838e-05 0.0004292022370579388
0.2951669693 -0.1003156006 8.668238446916626e-06 0.0003952765193608287
0.3004884422 -0.1003156006 -1.9981317856216683e-05 0.00035224335889313957
0.3058098853 -0.1003156006 -3.965630421161288e-05 0.0003107191244001668
0.3111313581 -0.1003156006 -6.624503996440426e-05 0.0002688938785582095
0.3164528012 -0.1003156006 -8.74983357237855e-05 0.0002275995451719191
0.3217742741 -0.1003156006 -0.00011461207955744456 0.00018593629397910534
0.3270957172 -0.1003156006 -7.526663066786519e-05 0.00014442306122443483
0.3324171901 -0.1003156006 -3.739116326621232e-05 0.0001029870848527279
0.3377386332 -0.1003156006 4.794752401437718e-06 6.167392350110327e-05
0.343060106 -0.1003156006 4.663296709649636e-05 1.9814313021761767e-05
0.3483815491 -0.1003156006 8.016016150437589e-05 -1.349954639164709e-05
0.353703022 -0.1003156006 0.00012488777705013814 -3.275501041199302e-05
0.3590244651 -0.1003156006 0.00018575449541648043 -2.143894481437597e-05
0.364345938 -0.1003156006 0.00024401642213652683 -1.0169428321715395e-05
0.369667381 -0.1003156006 0.00029861396773783267 6.10142748014797e-07
0.3749888539 -0.1003156006 0.0003539068861613475 1.0975918752351298e-05
0.380310297 -0.1003156006 0.0004160955565697552 2.1747550105970935e-05
0.3856317699 -0.1003156006 0.0004516471505336527 6.35543004846781e-05
0.390953213 -0.1003156006 0.00047209591195971257 0.00010882865298318844
0.3962746859 -0.1003156006 0.0004936241713928833 0.00015432025004279116
0.4015961289 -0.1003156006 0.0005182533009789417 0.0001989692727292178
0.4069176018 -0.1003156006 0.0005423512781818975 0.00024358936558129007
0.4122390449 -0.1003156006 0.0005467840660813923 0.0002781394007487091
0.4175605178 -0.1003156006 0.0005243970896426949 0.0003074510422689582
0.4228819609 -0.1003156006 0.0005004897076737613 0.0003387577740329753
0.4282034338 -0.1003156006 0.0004701330908770835 0.0003687838390249374
0.4335248768 -0.1003156006 0.0004507785176146535 0.00039574541307138263
0.4388463497 -0.1003156006 0.00042649446781989483 0.00041185320599649384
0.4441677928 -0.1003156006 0.0003991346237845134 0.00039886451500449225
0.4494892657 -0.1003156006 0.0003707470794239481 0.0003854986119533197
0.4548107088 -0.1003156006 0.00034632952315271465 0.000374933280476965
0.4601321816 -0.1003156006 0.000316989683276213 0.0003624833867467669
0.4654536247 -0.1003156006 0.00029831683253016495 0.0003436275643659273
0.4707750976 -0.1003156006 0.0002922649328388804 0.00031638087963552073
0.4760965407 -0.1003156006 0.0002859708994369132 0.00029091735383024534
0.4814180136 -0.1003156006 0.0002748096675386719 0.00026566467526944456
0.4867394567 -0.1003156006 0.00027316629022032475 0.00024018959425793128
0.4920609295 -0.1003156006 0.00028321831211111106 0.00021777793600920943
0.4973823726 -0.1003156006 0.00028664300612136264 0.0001954626278392948
0.5027038455 -0.1003156006 0.0003032055941711435 0.00017315888413901078
0.5080252886 -0.1003156006 0.0003115910805433422 0.00015103628347715636
0.5133467317 -0.1003156006 0.0003245803610227925 0.0001327390457517623
0.5186682343 -0.1003156006 0.0003435018116332996 0.00011478713977638994
0.5239896774 -0.1003156006 0.00035614857037010556 9.694968148112431e-05
0.5293111205 -0.1003156006 0.0003803508551839862 7.994276325464155e-05
0.5346325636 -0.1003156006 0.00039207724291957736 6.901382577688606e-05
0.5399540663 -0.1003156006 0.00041255452636585464 6.497835790713463e-05
0.5452755094 -0.1003156006 0.00042893007338770813 6.112148664403963e-05
0.5505969524 -0.1003156006 0.00044698271203781273 5.715683420761616e-05
0.5559183955 -0.1003156006 0.0004557115583425761 5.9520577544742465e-05
0.5612398982 -0.1003156006 0.0004680501103885569 6.740687031149579e-05
0.5665613413 -0.1003156006 0.00047665018555485486 7.453129570685514e-05
0.5718827844 -0.1003156006 0.0004767359991409577 7.721938787106848e-05
0.5772042274 -0.1003156006 0.0004589780810982896 8.047225791874119e-05
0.5825257301 -0.1003156006 0.00044776395028533404 8.512319235067123e-05
0.5878471732 -0.1003156006 0.00042835895554004384 8.060436382628059e-05
0.5931686163 -0.1003156006 0.0004088601389847936 7.298180298562385e-05
0.5984900594 -0.1003156006 0.0003892269913186524 6.714892361599575e-05
0.6038115621 -0.1003156006 0.00035666140365249303 5.4128731508316764e-05
0.6091330051 -0.1003156006 0.00033429832189528806 3.9091040301056955e-05
0.6144544482 -0.1003156006 0.0003041438873676193 1.8035193670708793e-05
0.6197758913 -0.1003156006 0.00027319714655753237 -7.79784386115216e-06
0.625097394 -0.1003156006 0.00024214684984370067 -3.883060107272407e-05
0.6304188371 -0.1003156006 0.00021039847718534548 -7.669393207141001e-05
0.6357402802 -0.1003156006 0.0001872398406954564 -0.00011478697621877808
0.6410617828 -0.1003156006 0.00016266847005398053 -0.00015518234327657355
0.6463832259 -0.1003156006 0.0001424557443149875 -0.00019991119864046992
0.651704669 -0.1003156006 0.0001264501916857854 -0.0002461407512957012
0.6570261121 -0.1003156006 0.00010361732172462327 -0.00029917136895283653
0.6623476148 -0.1003156006 7.333657975749207e-05 -0.00035306366330301416
0.6676690578 -0.1003156006 5.068661090834817e-05 -0.0004081041440796005
0.6729905009 -0.1003156006 2.7678761924123764e-05 -0.0004639556274460023
0.678311944 -0.1003156006 4.588221994527344e-06 -0.0005232215252195104
0.6836334467 -0.1003156006 -1.625213036239526e-05 -0.0005850534357444509
0.6889548898 -0.1003156006 -4.5852266865171726e-05 -0.0006453634153803001
0.6942763329 -0.1003156006 -7.447349161444372e-05 -0.0007128531796835389
0.6995977759 -0.1003156006 -0.00010858569862539203 -0.0007853027092494846
0.7049192786 -0.1003156006 -0.0001396265816909808 -0.0008609187622493415
0.7102407217 -0.1003156006 -0.0001753042053250712 -0.0009460039809434078
0.7155621648 -0.1003156006 -0.0002049187844123082 -0.001038455197630538
0.7208836079 -0.1003156006 -0.00024782749116241613 -0.00113841172513696
0.7262051105 -0.1003156006 -0.000290296041339848 -0.0012443221145237305
0.7315265536 -0.1003156006 -0.0003365348810734508 -0.0013586782034069116
0.7368479967 -0.1003156006 -0.00037313005054176175 -0.0014914565538132025
0.7421694398 -0.1003156006 -0.0004199769521722905 -0.0016376990537012132
0.7474909425 -0.1003156006 -0.0004630009479944951 -0.0017932195475376727
0.7528123856 -0.1003156006 -0.0005267135914574853 -0.0019685468946338738
0.7581338286 -0.1003156006 -0.0005917132798699907 -0.0021639469797689855
-0.3008363545 -0.09699654579 -0.0005071177736323223 0.00014652949613054982
-0.2955148816 -0.09699654579 -0.0004766121873224623 8.303719439972552e-05
-0.2901934385 -0.09699654579 -0.0004717684293585892 -9.387707995996606e-06
-0.2848719656 -0.09699654579 -0.00044655938299190156 -7.393219356998661e-05
-0.2795505226 -0.09699654579 -0.0004346907978507958 -0.00014850874375475401
-0.2742290497 -0.09699654579 -0.00036762907097695127 -0.0002331797664206551
-0.2689076066 -0.09699654579 -0.0002118846970307174 -0.0003035259474485036
-0.2635861337 -0.09699654579 -8.614443970856384e-05 -0.00035441949460117433
-0.2582646906 -0.09699654579 -4.086961689719089e-05 -0.00031431727564490815
-0.2529432178 -0.09699654579 9.86883006352786e-05 -0.00018750042873683185
-0.2476217598 -0.09699654579 0.00029313819082570124 -1.0162278933665003e-05
-0.2423003018 -0.09699654579 0.00042585678421647747 0.00015181746185098877
-0.2369788438 -0.09699654579 0.0003417698642360546 0.0002141234206256632
-0.2316573858 -0.09699654579 0.00019618799040676475 0.00027362064608256166
-0.2263359278 -0.09699654579 -4.505789031814102e-06 0.00032539035366536343
-0.2210144699 -0.09699654579 -0.000108070736865862 0.0003037609929757107
-0.2156930119 -0.09699654579 -0.0002172880096252542 0.0002128908163184533
-0.2103715539 -0.09699654579 -0.000361425874116143 0.00013083389422082156
-0.2050500959 -0.09699654579 -0.00023618935988500104 7.350396415353418e-05
-0.1997286379 -0.09699654579 3.8140952189192813e-06 1.2856541637354852e-05
-0.19440718 -0.09699654579 0.0002547430366793389 -4.954721457059301e-05
-0.189085722 -0.09699654579 0.0002886640448928059 -4.399444179625796e-05
-0.183764264 -0.09699654579 0.00023456785205375658 -2.8257189127830344e-06
-0.178442806 -0.09699654579 0.00019717429863793092 5.199259376416081e-05
-0.173121348 -0.09699654579 0.00025268665295389696 8.294460944875837e-05
-0.16779989 -0.09699654579 0.0003501856348180725 7.687148801475106e-05
-0.1624784321 -0.09699654579 0.00045631504693488816 5.5304935967535346e-05
-0.1571569741 -0.09699654579 0.0004955958759927186 0.00013861065774999908
-0.1518355161 -0.09699654579 0.0004913442227119161 0.00021315607693544214
-0.1465140581 -0.09699654579 0.00048194116761088237 0.0002921221455531572
-0.1411926001 -0.09699654579 0.0004602917291862836 0.0003615029280280593
-0.1358711421 -0.09699654579 0.00039951957121344117 0.0004008335108705122
-0.1305496842 -0.09699654579 0.0003337331621692228 0.0004391410257336358
-0.1252282262 -0.09699654579 0.0002680955692490109 0.0004789181011428122
-0.1199067682 -0.09699654579 0.00021043062304118551 0.000493953389165248
-0.1145853102 -0.09699654579 0.0001718404592364289 0.0005006791203428113
-0.1092638522 -0.09699654579 0.00012947462903227378 0.0005041043147698295
-0.1039423943 -0.09699654579 8.499924990558844e-05 0.0004996275792603281
-0.09862093627 -0.09699654579 6.0797384254886855e-05 0.0004861623793536911
-0.09329947084 -0.09699654579 4.260757599388583e-05 0.000471101484738861
-0.08797801286 -0.09699654579 2.3577080839549452e-05 0.0004543749112817236
-0.08265655488 -0.09699654579 3.6265916153178926e-06 0.0004397885608726643
-0.0773350969 -0.09699654579 -1.3365441762917759e-05 0.00044028318053856617
-0.07201363891 -0.09699654579 -3.109899890314336e-05 0.0004418947339963713
-0.06669218093 -0.09699654579 -5.503419438309948e-05 0.00044351025095131896
-0.06137072667 -0.09699654579 -8.14221356668385e-05 0.00044510402106789687
-0.05604926869 -0.09699654579 -8.546623298258441e-05 0.00044794964170969526
-0.05072781071 -0.09699654579 -9.263463857411704e-05 0.0004508364787791591
-0.045406349 -0.09699654579 -9.5843458501435e-05 0.00045373222310887256
-0.04008489102 -0.09699654579 -0.00010658190638931747 0.00045719920740688565
-0.03476343304 -0.09699654579 -0.00011775716940970925 0.0004612789950426648
-0.02944197692 -0.09699654579 -0.00013912737551073878 0.0004645526902691072
-0.02412051894 -0.09699654579 -0.00015521607659927487 0.0004670272247942595
-0.01879905909 -0.09699654579 -0.00017683850022833043 0.00047025684007220197
-0.01347760204 -0.09699654579 -0.00020184095886714823 0.00047442277438163976
-0.00815614406 -0.09699654579 -0.0002292759089652655 0.00047611802390549855
-0.00283468538 -0.09699654579 -0.0002650287057140478 0.0004753358594578598
0.002486772602 -0.09699654579 -0.00030029700172431816 0.00047388459839289913
0.007808230817 -0.09699654579 -0.00033136313610867104 0.00047240959351529656
0.0131296888 -0.09699654579 -0.0003658418934714551 0.00047133246419306705
0.01845114678 -0.09699654579 -0.00039053066032928533 0.00045661115682853106
0.02377260476 -0.09699654579 -0.0004106609356896981 0.00043142816967398415
0.02909406275 -0.09699654579 -0.0004290483725618337 0.00040447263156153334
0.03441552073 -0.09699654579 -0.0004483275000855635 0.0003772762513562576
0.03973697871 -0.09699654579 -0.0004655368629176482 0.00035213667307523413
0.04505843669 -0.09699654579 -0.00047021430378533195 0.00032104279524989383
0.05037989467 -0.09699654579 -0.00044269980242779317 0.0002796812955366114
0.05570135266 -0.09699654579 -0.00041288236710436177 0.0002381646941290712
0.06102281436 -0.09699654579 -0.0003857615441666731 0.00019590706718452118
0.06634426862 -0.09699654579 -0.00035872757092279226 0.00015464822274153327
0.0716657266 -0.09699654579 -0.00033135172936694154 0.00011326711292951212
0.07698718458 -0.09699654579 -0.000291426960775072 0.00011562910504074426
0.08230864257 -0.09699654579 -0.0002519968415153786 0.00012028020112610734
0.08763010055 -0.09699654579 -0.00020574306613990506 0.00012460728957112632
0.09295155853 -0.09699654579 -0.00016806134875232916 0.00012908846410218308
0.09827301651 -0.09699654579 -0.0001272147094213504 0.00013337010815767008
0.1035944745 -0.09699654579 -0.00010745927106264 0.00014247937443210678
0.1089159325 -0.09699654579 -0.00012139894113163574 0.000160972967337136
0.1142373979 -0.09699654579 -0.0001405753921988872 0.00017804247272891697
0.1195588559 -0.09699654579 -0.00015720714015025037 0.00019383024968916716
0.1248803139 -0.09699654579 -0.00017105242474346811 0.00020977378187666838
0.1302017719 -0.09699654579 -0.00018548173997947858 0.00022630300095326128
0.1355232298 -0.09699654579 -0.00017856185959299513 0.0002138310106922357
0.1408446878 -0.09699654579 -0.0001715514007992834 0.00018469221625637248
0.1461661458 -0.09699654579 -0.0001577381351956576 0.00015544485216773996
0.1514876038 -0.09699654579 -0.00015057701361063458 0.0001265473325642826
0.1568090618 -0.09699654579 -0.00014131949344562339 9.741853120599039e-05
0.1621305197 -0.09699654579 -0.00012910212308651814 7.007322948866678e-05
0.1674519777 -0.09699654579 -9.469803581670536e-05 4.99727543675629e-05
0.1727734357 -0.09699654579 -5.712444285547342e-05 3.181469237812319e-05
0.1780948937 -0.09699654579 -1.682120547895099e-05 1.541285389678824e-05
0.1834163517 -0.09699654579 2.3780325435958146e-05 -1.3838631472294575e-06
0.1887378097 -0.09699654579 5.992065183305849e-05 -2.200260454007627e-05
0.1940592676 -0.09699654579 9.660538886758631e-05 -4.306117121684589e-05
0.1993807256 -0.09699654579 0.000127608430304982 -3.680528159110231e-05
0.2047021836 -0.09699654579 0.0001552232277996559 -2.3031729885513503e-05
0.2100236416 -0.09699654579 0.00018570669411372854 -1.9063507022305847e-05
0.2153450996 -0.09699654579 0.00022086169053740158 -1.6331337426195404e-05
0.2206665576 -0.09699654579 0.00024975221432370207 -1.3677026578547082e-05
0.2259880155 -0.09699654579 0.0002780288426345839 -1.0309314655428407e-05
0.2313094735 -0.09699654579 0.0002934519696457596 2.5033698442668222e-05
0.2366309315 -0.09699654579 0.00029358078928303475 7.249075560715171e-05
0.2419523895 -0.09699654579 0.0002932829015897164 0.00012049715167645766
0.2472738475 -0.09699654579 0.0002962399157242316 0.00016809537886568407
0.2525953054 -0.09699654579 0.000300402357508882 0.00021179504720031232
0.2579167783 -0.09699654579 0.0002983015419983017 0.0002517175966423389
0.2632382214 -0.09699654579 0.0002524065225644755 0.0002848362413714398
0.2685596943 -0.09699654579 0.00020133400180230194 0.00031668001077055866
0.2738811374 -0.09699654579 0.00015668786297796619 0.000345725026140398
0.2792026103 -0.09699654579 0.00012190574823742302 0.00037004454528036696
0.2845240533 -0.09699654579 7.283547099836797e-05 0.00039620843736832255
0.2898455262 -0.09699654579 2.372503872321695e-05 0.0004238328298236199
0.2951669693 -0.09699654579 -1.74078599218835e-07 0.0003832584829034976
0.3004884422 -0.09699654579 -3.2788592080643565e-05 0.0003373612919089141
0.3058098853 -0.09699654579 -6.006682943383947e-05 0.0002936319641116005
0.3111313581 -0.09699654579 -8.66171290553889e-05 0.00025001810566888794
0.3164528012 -0.09699654579 -0.00010674552210276415 0.00020646499340813167
0.3217742741 -0.09699654579 -0.00012995702308674832 0.00016410749295125312
0.3270957172 -0.09699654579 -9.181644554243072e-05 0.0001202295509690438
0.3324171901 -0.09699654579 -4.709076680143189e-05 7.612625924353165e-05
0.3377386332 -0.09699654579 -1.1004837268359905e-05 3.447450303859167e-05
0.343060106 -0.09699654579 2.6931996968152412e-05 -7.084353796197982e-06
0.3483815491 -0.09699654579 6.609256854931051e-05 -4.794890472650303e-05
0.353703022 -0.09699654579 0.00011886390145173755 -7.041015250121261e-05
0.3590244651 -0.09699654579 0.00018842606730252608 -5.6454065716892017e-05
0.364345938 -0.09699654579 0.0002502391534782925 -4.488441712543644e-05
0.369667381 -0.09699654579 0.0003119840864475777 -3.2870103507582566e-05
0.3749888539 -0.09699654579 0.000379482046613697 -2.0968518144083293e-05
0.380310297 -0.09699654579 0.00043341267017294144 -1.023311006332001e-05
0.3856317699 -0.09699654579 0.0004682778773359493 3.367613795320606e-05
0.390953213 -0.09699654579 0.0004975021521843195 8.611585559419765e-05
0.3962746859 -0.09699654579 0.0005253958934956512 0.0001419134092678092
0.4015961289 -0.09699654579 0.0005536554156413603 0.00019283704356651453
0.4069176018 -0.09699654579 0.0005788982718905634 0.00024173696398410951
0.4122390449 -0.09699654579 0.000581809154072063 0.0002849667549381424
0.4175605178 -0.09699654579 0.00054902797255754 0.00032061114586965614
0.4228819609 -0.09699654579 0.0005162794704777623 0.00035200839357320675
0.4282034338 -0.09699654579 0.0004885839670217862 0.00038334361700432563
0.4335248768 -0.09699654579 0.0004587788162946098 0.00041349255899646295
0.4388463497 -0.09699654579 0.00043393370603337457 0.00043167552308990897
0.4441677928 -0.09699654579 0.0003989716406929837 0.00041616095873256605
0.4494892657 -0.09699654579 0.0003662929048419908 0.000401384694645566
0.4548107088 -0.09699654579 0.00034011671054650825 0.0003860511733753891
0.4601321816 -0.09699654579 0.0003007654996876379 0.00037138550715986706
0.4654536247 -0.09699654579 0.0002922413616954623 0.0003522717915150778
0.4707750976 -0.09699654579 0.0002842787472758845 0.00032345941568397623
0.4760965407 -0.09699654579 0.00027444792104450963 0.0002921483972853549
0.4814180136 -0.09699654579 0.00027093107442832144 0.0002630449249945496
0.4867394567 -0.09699654579 0.00026753328910879813 0.00023487369684165
0.4920609295 -0.09699654579 0.00027145772315392505 0.00020961047184657727
0.4973823726 -0.09699654579 0.00028915873829499835 0.00018540303416026798
0.5027038455 -0.09699654579 0.0002984624230830261 0.00016486743263729317
0.5080252886 -0.09699654579 0.0003055194340472261 0.0001411708246519831
0.5133467317 -0.09699654579 0.0003267471635434819 0.00012030721154939442
0.5186682343 -0.09699654579 0.0003480819754967213 0.00010352689761045246
0.5239896774 -0.09699654579 0.0003625329241711358 8.572708248080788e-05
0.5293111205 -0.09699654579 0.00038498873698555283 6.871466606087761e-05
0.5346325636 -0.09699654579 0.00040706761143421305 5.7514518189163927e-05
0.5399540663 -0.09699654579 0.000422819212179223 5.3993858689275775e-05
0.5452755094 -0.09699654579 0.00044233036920516167 5.088118277259515e-05
0.5505969524 -0.09699654579 0.00045987890718375215 4.671714740912577e-05
0.5559183955 -0.09699654579 0.0004726290032209473 5.388538554131031e-05
0.5612398982 -0.09699654579 0.0004838635054171263 6.260644964470575e-05
0.5665613413 -0.09699654579 0.000491084529391863 7.161544525395683e-05
0.5718827844 -0.09699654579 0.0004893115840596795 8.205142137331153e-05
0.5772042274 -0.09699654579 0.00047190870223210113 8.713528907112023e-05
0.5825257301 -0.09699654579 0.00045554690303572495 9.087838067011291e-05
0.5878471732 -0.09699654579 0.0004376663068215958 9.616743611985704e-05
0.5931686163 -0.09699654579 0.00041439004814030836 9.085790616310747e-05
0.5984900594 -0.09699654579 0.0003914379998309057 8.546778866289335e-05
0.6038115621 -0.09699654579 0.0003547567988497319 7.395971135804105e-05
0.6091330051 -0.09699654579 0.00032531907398611554 5.858387930962593e-05
0.6144544482 -0.09699654579 0.0002930649170995436 3.9360597593269305e-05
0.6197758913 -0.09699654579 0.0002609089598563758 1.0372701605440175e-05
0.625097394 -0.09699654579 0.000229834618994212 -2.064222749278214e-05
0.6304188371 -0.09699654579 0.0002041085117607065 -5.919944528089867e-05
0.6357402802 -0.09699654579 0.00016862908849113616 -9.842749562697697e-05
0.6410617828 -0.09699654579 0.00014478852510320863 -0.00013864786915429255
0.6463832259 -0.09699654579 0.00012495317460031982 -0.00018322935622761924
0.651704669 -0.09699654579 0.0001111588061622715 -0.00022979807428396114
0.6570261121 -0.09699654579 7.86543217160436e-05 -0.00028283253911643206
0.6623476148 -0.09699654579 5.2154020010926715e-05 -0.00033864502657978226
0.6676690578 -0.09699654579 2.3482836150581807e-05 -0.0003951908033647616
0.6729905009 -0.09699654579 6.987281380993439e-07 -0.00045085219756199553
0.678311944 -0.09699654579 -2.4903868961476568e-05 -0.0005078335453275373
0.6836334467 -0.09699654579 -4.635669748198077e-05 -0.0005690157961281265
0.6889548898 -0.09699654579 -7.745180919437358e-05 -0.0006290606962050282
0.6942763329 -0.09699654579 -0.00010770951160800932 -0.0006960133908581679
0.6995977759 -0.09699654579 -0.00013906350729791096 -0.000764448124576203
0.7049192786 -0.09699654579 -0.00017935515692204631 -0.0008370713424459141
0.7102407217 -0.09699654579 -0.00021367883707357937 -0.0009216624445928546
0.7155621648 -0.09699654579 -0.0002586003673311813 -0.0010120958427737624
0.7208836079 -0.09699654579 -0.00030095436658019543 -0.0011099745211468818
0.7262051105 -0.09699654579 -0.0003536321781532916 -0.0012169226019316513
0.7315265536 -0.09699654579 -0.0003996895585853157 -0.001332007575098105
0.7368479967 -0.09699654579 -0.0004505408255461583 -0.0014599677999958087
0.7421694398 -0.09699654579 -0.0005075996947052648 -0.0016012233925264293
0.7474909425 -0.09699654579 -0.0005718106069909552 -0.0017582460394482316
0.7528123856 -0.09699654579 -0.0006335862377810459 -0.0019349091565869913
0.7581338286 -0.09699654579 -0.0007082649875002464 -0.002131788406054705
-0.3008363545 -0.09367749095 -0.0005237947512717883 0.00015841861106739738
-0.2955148816 -0.09367749095 -0.0005232017006711643 0.00010536606973874858
-0.2901934385 -0.09367749095 -0.0005175119590967207 -5.863689054964438e-06
-0.2848719656 -0.09367749095 -0.0005348269446241063 -8.849040298385232e-05
-0.2795505226 -0.09367749095 -0.0005098962653691719 -0.0001641974735934295
-0.2742290497 -0.09367749095 -0.00043430594022677655 -0.0002574127153626617
-0.2689076066 -0.09367749095 -0.000317804792379066 -0.0003497007407681209
-0.2635861337 -0.09367749095 -0.00018380983527007397 -0.00045514671931277636