VARIABLES = X,Y,phix,phiy
ZONE I=200,J=200,F=POINT 
-0.3008363545 -0.1003156006 0.0008325141621937697 -0.0001786163480467926
-0.2955148816 -0.1003156006 0.0008008430028247402 -0.0001815134994886731
-0.2901934385 -0.1003156006 0.0008212409139918168 -0.00017717285720766465
-0.2848719656 -0.1003156006 0.000861785387002796 -0.00018246923007874524
-0.2795505226 -0.1003156006 0.0008926637473789451 -0.00018774955682542523
-0.2742290497 -0.1003156006 0.0009697837525555332 -0.00011911032727814612
-0.2689076066 -0.1003156006 0.0009889867111868354 -0.00016864971671317415
-0.2635861337 -0.1003156006 0.000949868338214192 -0.0002600642480931948
-0.2582646906 -0.1003156006 0.0010115541075839654 -0.0002646120160754439
-0.2529432178 -0.1003156006 0.0011167021753436407 -0.0002718094427345891
-0.2476217598 -0.1003156006 0.0011779532862090222 -0.00023002666770386126
-0.2423003018 -0.1003156006 0.0011966862310163603 -8.754852974462796e-05
-0.2369788438 -0.1003156006 0.001171169552501455 -4.102771781527022e-05
-0.2316573858 -0.1003156006 0.0010737384619957013 -8.341063500563505e-05
-0.2263359278 -0.1003156006 0.0010547004054768884 -7.343900335984527e-05
-0.2210144699 -0.1003156006 0.0010297049239205225 -6.847464678260444e-05
-0.2156930119 -0.1003156006 0.0010212726652808275 -5.428340547120115e-05
-0.2103715539 -0.1003156006 0.0010109961246991667 -3.0473296958039804e-05
-0.2050500959 -0.1003156006 0.0010078886044854807 -4.1641791744833286e-05
-0.1997286379 -0.1003156006 0.0009923600223742117 -4.9206311063100424e-05
-0.19440718 -0.1003156006 0.0010031689968937139 -9.278169334217235e-05
-0.189085722 -0.1003156006 0.0010010597346623783 -0.00014636225404086937
-0.183764264 -0.1003156006 0.0009779738327682138 -0.00022367166722518523
-0.178442806 -0.1003156006 0.0009438568776744818 -0.0002881112411208667
-0.173121348 -0.1003156006 0.0009323001985781263 -0.00027364252173205756
-0.16779989 -0.1003156006 0.0009282995947901377 -0.00023472264945350688
-0.1624784321 -0.1003156006 0.0009359381497891178 -0.00022469179332407552
-0.1571569741 -0.1003156006 0.0009460651348754691 -0.00022303166151872502
-0.1518355161 -0.1003156006 0.0009455835603652206 -0.0002244351541473051
-0.1465140581 -0.1003156006 0.0009528136291488981 -0.00022462786730966043
-0.1411926001 -0.1003156006 0.0009475733576160361 -0.00021965310878220036
-0.1358711421 -0.1003156006 0.0009324750436186262 -0.00020240600969407085
-0.1305496842 -0.1003156006 0.0009186803250236166 -0.0001850197783689591
-0.1252282262 -0.1003156006 0.0009027705067955544 -0.00018106813897340957
-0.1199067682 -0.1003156006 0.0008836769913110182 -0.00017993159176893933
-0.1145853102 -0.1003156006 0.0008671934102891479 -0.0001792966890140143
-0.1092638522 -0.1003156006 0.0008461038342790523 -0.0001803279438108152
-0.1039423943 -0.1003156006 0.0008307945260105245 -0.00018110750778917048
-0.09862093627 -0.1003156006 0.0008119828227883487 -0.00018045339344678797
-0.09329947084 -0.1003156006 0.0007982807621679058 -0.0001676547598051584
-0.08797801286 -0.1003156006 0.0007819719662237951 -0.00015487581976292918
-0.08265655488 -0.1003156006 0.0007668433541747488 -0.00014126676230423737
-0.0773350969 -0.1003156006 0.000739812175092104 -0.00014448041578597157
-0.07201363891 -0.1003156006 0.0007126027340987045 -0.00014710523306123263
-0.06669218093 -0.1003156006 0.0006878228881919276 -0.00014973550155603286
-0.06137072667 -0.1003156006 0.0006633674287815825 -0.0001592416711001058
-0.05604926869 -0.1003156006 0.0006473259913383737 -0.00016407549129438765
-0.05072781071 -0.1003156006 0.0006364049198728981 -0.00016710676694916965
-0.045406349 -0.1003156006 0.0006283830636240702 -0.00016984830308495273
-0.04008489102 -0.1003156006 0.0006176889098751413 -0.0001738605867283664
-0.03476343304 -0.1003156006 0.0006090638064412242 -0.00017501323083082674
-0.02944197692 -0.1003156006 0.0006051652426092792 -0.00017037881170649244
-0.02412051894 -0.1003156006 0.0005944722045682701 -0.00016510253686839168
-0.01879905909 -0.1003156006 0.0005931553685814492 -0.00015962696293987937
-0.01347760204 -0.1003156006 0.0005828162667652014 -0.00015447255606599496
-0.00815614406 -0.1003156006 0.0005729065313573374 -0.0001455491881773822
-0.00283468538 -0.1003156006 0.0005618855179399339 -0.000133452508449935
0.002486772602 -0.1003156006 0.000546001921024067 -0.00012158736245160371
0.007808230817 -0.1003156006 0.0005310930881034628 -0.00010972439366370224
0.0131296888 -0.1003156006 0.0005181717314329455 -9.765514818819037e-05
0.01845114678 -0.1003156006 0.0005071677465224604 -8.643785731267677e-05
0.02377260476 -0.1003156006 0.0004912113311589013 -7.596551889422117e-05
0.02909406275 -0.1003156006 0.0004839333581476596 -6.521298197092825e-05
0.03441552073 -0.1003156006 0.00047492697863148637 -5.443761593015469e-05
0.03973697871 -0.1003156006 0.0004652343423891209 -4.3945208573411973e-05
0.04505843669 -0.1003156006 0.0004543693583111933 -3.772500823265943e-05
0.05037989467 -0.1003156006 0.00044025100099787367 -3.9074786607670634e-05
0.05570135266 -0.1003156006 0.0004383958109081714 -4.102497644042175e-05
0.06102281436 -0.1003156006 0.00043359394770619116 -4.2892609388827765e-05
0.06634426862 -0.1003156006 0.0004188776329312349 -4.4416995708498505e-05
0.0716657266 -0.1003156006 0.0004136924414453014 -4.5763790383757076e-05
0.07698718458 -0.1003156006 0.0004087715486809532 -4.662775528219307e-05
0.08230864257 -0.1003156006 0.0004084710339201272 -4.73691969094176e-05
0.08763010055 -0.1003156006 0.00040010614752930464 -4.858835216426266e-05
0.09295155853 -0.1003156006 0.0003944080613320884 -4.94228751243115e-05
0.09827301651 -0.1003156006 0.0003854506888888617 -5.0045335730341164e-05
0.1035944745 -0.1003156006 0.0004005172459169734 -5.41990138221083e-05
0.1089159325 -0.1003156006 0.0004490590577855708 -6.59661502498523e-05
0.1142373979 -0.1003156006 0.0005001672362662184 -7.758604939999984e-05
0.1195588559 -0.1003156006 0.0005431062720720812 -9.12549227048341e-05
0.1248803139 -0.1003156006 0.0005889254395892361 -0.00010426150250856445
0.1302017719 -0.1003156006 0.0006349766419138797 -0.00011669800205550645
0.1355232298 -0.1003156006 0.0006264145119871068 -0.00012632487296937908
0.1408446878 -0.1003156006 0.0005825113160525842 -0.00013321674172744706
0.1461661458 -0.1003156006 0.0005289557475440346 -0.00013868666189199218
0.1514876038 -0.1003156006 0.00048504609740976595 -0.00014424993535308795
0.1568090618 -0.1003156006 0.00043707618799157305 -0.0001497025686907937
0.1621305197 -0.1003156006 0.00038584319912660895 -0.00015518955870220553
0.1674519777 -0.1003156006 0.00034961548820010887 -0.00012875964641894872
0.1727734357 -0.1003156006 0.00032044389358255236 -8.762561241180866e-05
0.1780948937 -0.1003156006 0.0002926397362024325 -4.6423741191141854e-05
0.1834163517 -0.1003156006 0.00026293099753261774 -5.290857553636884e-06
0.1887378097 -0.1003156006 0.0002285437111330128 3.359616943847108e-05
0.1940592676 -0.1003156006 0.0002090730707701701 6.82182347613009e-05
0.1993807256 -0.1003156006 0.00022392821864175688 7.617272836967938e-05
0.2047021836 -0.1003156006 0.0002427740066898448 7.553328223865352e-05
0.2100236416 -0.1003156006 0.00026525259072696794 7.483241698683549e-05
0.2153450996 -0.1003156006 0.00028584792650984334 6.701989366602802e-05
0.2206665576 -0.1003156006 0.00031093846998604154 6.15574807900533e-05
0.2259880155 -0.1003156006 0.0003352741626165248 5.608453068147127e-05
0.2313094735 -0.1003156006 0.0003378552776089419 2.373103364265357e-06
0.2366309315 -0.1003156006 0.0003502486345074117 -6.918935579174061e-05
0.2419523895 -0.1003156006 0.00034672390724834503 -0.00014293691991261158
0.2472738475 -0.1003156006 0.0003527686809574043 -0.00021676306371222606
0.2525953054 -0.1003156006 0.00036527358878261495 -0.0002921743274495948
0.2579167783 -0.1003156006 0.0003719617229477394 -0.0003783925738712517
0.2632382214 -0.1003156006 0.0004361491733011613 -0.0004551869682299501
0.2685596943 -0.1003156006 0.0005211397287801789 -0.0005274001776400389
0.2738811374 -0.1003156006 0.0005988847261016437 -0.0006025425332645385
0.2792026103 -0.1003156006 0.000685341907542009 -0.0006754127210210901
0.2845240533 -0.1003156006 0.0007622815971202243 -0.0007400357305269061
0.2898455262 -0.1003156006 0.0008419417753657581 -0.0008049014264714659
0.2951669693 -0.1003156006 0.0008910706781769449 -0.0007857326913680077
0.3004884422 -0.1003156006 0.0009321493519465273 -0.0007507995062620497
0.3058098853 -0.1003156006 0.000972936531267898 -0.0006954236978299409
0.3111313581 -0.1003156006 0.0010184042161142698 -0.000639931329732592
0.3164528012 -0.1003156006 0.0010579782635206133 -0.0005845010723754155
0.3217742741 -0.1003156006 0.0010928148699589446 -0.0005300945771570853
0.3270957172 -0.1003156006 0.0010717009724236105 -0.0004785199372603415
0.3324171901 -0.1003156006 0.001048010647006315 -0.00042655826739309
0.3377386332 -0.1003156006 0.0010211624715422657 -0.00037439136716225965
0.343060106 -0.1003156006 0.0009975716355321172 -0.00032294941585796433
0.3483815491 -0.1003156006 0.0009783543815949573 -0.00029938121193686025
0.353703022 -0.1003156006 0.0009665027213962902 -0.0002912124329023635
0.3590244651 -0.1003156006 0.0009348294119309572 -0.0003080471481201156
0.364345938 -0.1003156006 0.0009077652512697587 -0.00032455826003775475
0.369667381 -0.1003156006 0.0008808331859851769 -0.0003410660810953495
0.3749888539 -0.1003156006 0.0008613248648213607 -0.0003577277487923383
0.380310297 -0.1003156006 0.0008397268313366307 -0.00037455826614552683
0.3856317699 -0.1003156006 0.00083687141909 -0.0003761838846388839
0.390953213 -0.1003156006 0.0008382264328162535 -0.0003723242397158365
0.3962746859 -0.1003156006 0.0008391602465780785 -0.0003673889873702016
0.4015961289 -0.1003156006 0.0008415089793422707 -0.0003608590978139427
0.4069176018 -0.1003156006 0.000836388836403871 -0.00035172167544273434
0.4122390449 -0.1003156006 0.0008298766031444043 -0.0003407670656826253
0.4175605178 -0.1003156006 0.0008098710818473941 -0.00032008067126223876
0.4228819609 -0.1003156006 0.0007857270501105691 -0.0002968323246474738
0.4282034338 -0.1003156006 0.000764828271442576 -0.00027437367256438863
0.4335248768 -0.1003156006 0.0007475955715131892 -0.0002569448299864615
0.4388463497 -0.1003156006 0.0007264058346991608 -0.00024095296362394445
0.4441677928 -0.1003156006 0.0006926352076706189 -0.00023268157789213255
0.4494892657 -0.1003156006 0.0006628019299232907 -0.000223866942819906
0.4548107088 -0.1003156006 0.000637628014462146 -0.000216190868553152
0.4601321816 -0.1003156006 0.0005972745084674157 -0.0002085137894204227
0.4654536247 -0.1003156006 0.0005715030192739877 -0.00020199515024643504
0.4707750976 -0.1003156006 0.0005443564617248046 -0.00019726258626037377
0.4760965407 -0.1003156006 0.0005156618845098843 -0.0001934827249190293
0.4814180136 -0.1003156006 0.0004880983724923739 -0.00019001850623021342
0.4867394567 -0.1003156006 0.00045764195610604016 -0.00018595727157430473
0.4920609295 -0.1003156006 0.0004173702499466219 -0.00018506331070045317
0.4973823726 -0.1003156006 0.0003900051043831051 -0.0001865106812691805
0.5027038455 -0.1003156006 0.00035467254594001633 -0.0001880016252520787
0.5080252886 -0.1003156006 0.0003164450192580586 -0.00018895427061814643
0.5133467317 -0.1003156006 0.0002831461590524661 -0.00019400289581419363
0.5186682343 -0.1003156006 0.0002438701118621848 -0.00020255527458004584
0.5239896774 -0.1003156006 0.00021250200726127277 -0.00021081226621403319
0.5293111205 -0.1003156006 0.0001687252196996178 -0.00021968754005070675
0.5346325636 -0.1003156006 0.0001332532452505003 -0.0002334036502861668
0.5399540663 -0.1003156006 9.98702435583218e-05 -0.00025014949019838337
0.5452755094 -0.1003156006 7.013564546939255e-05 -0.0002672836307366173
0.5505969524 -0.1003156006 3.418854411576849e-05 -0.000285141573734293
0.5559183955 -0.1003156006 -1.954488972053516e-06 -0.00030967165690239334
0.5612398982 -0.1003156006 -3.2760914442779655e-05 -0.0003371603747856185
0.5665613413 -0.1003156006 -6.740759606211006e-05 -0.0003641692254997342
0.5718827844 -0.1003156006 -0.00010126040225931646 -0.0003935950505119581
0.5772042274 -0.1003156006 -0.00013289098307565206 -0.0004313202329045813
0.5825257301 -0.1003156006 -0.00016699578248539464 -0.0004689659007950942
0.5878471732 -0.1003156006 -0.00019461797424735736 -0.0005096559474316184
0.5931686163 -0.1003156006 -0.00022625527376553045 -0.0005564993254397814
0.5984900594 -0.1003156006 -0.00025908498681119735 -0.0006015145634062798
0.6038115621 -0.1003156006 -0.00028587882399232884 -0.0006537362906910909
0.6091330051 -0.1003156006 -0.0003157162093247501 -0.0007065627904387316
0.6144544482 -0.1003156006 -0.0003403606066967559 -0.0007660350644016115
0.6197758913 -0.1003156006 -0.00035713636286127844 -0.0008284621315657477
0.625097394 -0.1003156006 -0.0003787246047662637 -0.000894140557451845
0.6304188371 -0.1003156006 -0.0003842880296907986 -0.000967750239481952
0.6357402802 -0.1003156006 -0.00039390637860188635 -0.001039965049856995
0.6410617828 -0.1003156006 -0.00038546940289215084 -0.001113492793986791
0.6463832259 -0.1003156006 -0.00038246196682486947 -0.001186529830846846
0.651704669 -0.1003156006 -0.0003775047592646485 -0.0012594038874442093
0.6570261121 -0.1003156006 -0.0003786970430392735 -0.0013345382417157166
0.6623476148 -0.1003156006 -0.00036693362103704433 -0.0014094618638790563
0.6676690578 -0.1003156006 -0.0003461182865291746 -0.0014860540812691296
0.6729905009 -0.1003156006 -0.00031944852571820357 -0.0015660107169651416
0.678311944 -0.1003156006 -0.00029979484076168096 -0.0016448919030408688
0.6836334467 -0.1003156006 -0.00027940077446026194 -0.0017250467510088719
0.6889548898 -0.1003156006 -0.0002475120231913545 -0.0018059958773627446
0.6942763329 -0.1003156006 -0.00020906038099825072 -0.0018871360290519457
0.6995977759 -0.1003156006 -0.00016650896079695062 -0.0019708670677085175
0.7049192786 -0.1003156006 -0.00012679404076433186 -0.0020579199933684995
0.7102407217 -0.1003156006 -8.092208885089956e-05 -0.0021471372449947544
0.7155621648 -0.1003156006 -1.9594545650371504e-05 -0.002238165403511236
0.7208836079 -0.1003156006 4.833643665147434e-05 -0.0023280398351998564
0.7262051105 -0.1003156006 0.0001199707321223682 -0.002417651493551193
0.7315265536 -0.1003156006 0.00020857433465431896 -0.002508122634344186
0.7368479967 -0.1003156006 0.0003298136919851468 -0.002594627091261642
0.7421694398 -0.1003156006 0.0004454151535770385 -0.0026760865452375698
0.7474909425 -0.1003156006 0.0005677177478021705 -0.0027473921686867356
0.7528123856 -0.1003156006 0.0007165818534803075 -0.002808720301944371
0.7581338286 -0.1003156006 0.000880026621264717 -0.0028611282856310484
-0.3008363545 -0.09699654579 0.0008339952595771241 -0.00018267951121108477
-0.2955148816 -0.09699654579 0.0008134936182936382 -0.00018795376944534027
-0.2901934385 -0.09699654579 0.0008325510750143935 -0.00016912099145966874
-0.2848719656 -0.09699654579 0.0008686549687266415 -0.00017399666569887498
-0.2795505226 -0.09699654579 0.0008947713133856485 -0.00016677121992474773
-0.2742290497 -0.09699654579 0.0009448197771555919 -0.000146500632385337
-0.2689076066 -0.09699654579 0.0009357974407725165 -0.0002487272669513249
-0.2635861337 -0.09699654579 0.001001659218339927 -0.0002781127148150426
-0.2582646906 -0.09699654579 0.001118964513025225 -0.0002328273124745216
-0.2529432178 -0.09699654579 0.0011606413883775682 -0.00022261210682917812
-0.2476217598 -0.09699654579 0.0012236500213770494 -0.00010274557367912593
-0.2423003018 -0.09699654579 0.0012310510320956345 -4.08940036052729e-05
-0.2369788438 -0.09699654579 0.0010775650259260965 -0.00012341723328844538
-0.2316573858 -0.09699654579 0.0010304221434306036 -0.00013060937694277626
-0.2263359278 -0.09699654579 0.0010771862584948485 -7.588874352355486e-05
-0.2210144699 -0.09699654579 0.001071013659107498 -6.182862307369255e-05
-0.2156930119 -0.09699654579 0.0010611994391582225 -3.635048624424304e-05
-0.2103715539 -0.09699654579 0.0010322683367766225 2.3921357389193387e-05
-0.2050500959 -0.09699654579 0.0010215120949003283 2.8839270862065873e-05
-0.1997286379 -0.09699654579 0.001033542661121909 -1.713802774346971e-05
-0.19440718 -0.09699654579 0.0010412464350764096 -8.45677167091622e-05
-0.189085722 -0.09699654579 0.0010076516524876137 -0.0001314298749423037
-0.183764264 -0.09699654579 0.0009678169596362755 -0.0001798658501766899
-0.178442806 -0.09699654579 0.0009193476258354599 -0.00021984109267555513
-0.173121348 -0.09699654579 0.000905135308678946 -0.00021818299513615616
-0.16779989 -0.09699654579 0.0009254420941384641 -0.000221567346841749
-0.1624784321 -0.09699654579 0.000924531722464214 -0.00023034999864670575
-0.1571569741 -0.09699654579 0.0009306354654669492 -0.00022796204442545885
-0.1518355161 -0.09699654579 0.0009229277698655454 -0.00022021284020226633
-0.1465140581 -0.09699654579 0.0009118877401164743 -0.00020910745831597387
-0.1411926001 -0.09699654579 0.0008969881499074591 -0.00019732333040907687
-0.1358711421 -0.09699654579 0.0008821481448147853 -0.00019565473171926414
-0.1305496842 -0.09699654579 0.0008636899336619075 -0.00020145910068295513
-0.1252282262 -0.09699654579 0.0008489586569307831 -0.00020922916655613172
-0.1199067682 -0.09699654579 0.0008438904094142024 -0.00020211899377097056
-0.1145853102 -0.09699654579 0.0008308632251591461 -0.00019657348092806022
-0.1092638522 -0.09699654579 0.0008214226124990878 -0.0001855506137006585
-0.1039423943 -0.09699654579 0.0008076081807785748 -0.00016407988553975383
-0.09862093627 -0.09699654579 0.0007932849524881259 -0.0001442078832660501
-0.09329947084 -0.09699654579 0.0007730561070512658 -0.00012338190592835443
-0.08797801286 -0.09699654579 0.0007436118455754282 -0.00010215535461036896
-0.08265655488 -0.09699654579 0.0007260645550949566 -8.28055261991433e-05
-0.0773350969 -0.09699654579 0.0007024586912586672 -9.38516210192397e-05
-0.07201363891 -0.09699654579 0.000674728564135911 -0.00010999346925281407
-0.06669218093 -0.09699654579 0.000647688113614715 -0.00012651086572028285
-0.06137072667 -0.09699654579 0.0006407063932633885 -0.00014670483654336718
-0.05604926869 -0.09699654579 0.000620086779470353 -0.0001546810533283802
-0.05072781071 -0.09699654579 0.000618724586377649 -0.00016067901013108602
-0.045406349 -0.09699654579 0.0006109519186647054 -0.00016685263888011114
-0.04008489102 -0.09699654579 0.0006033417839379871 -0.0001719410337025152
-0.03476343304 -0.09699654579 0.000598624730371117 -0.00017330277689658582
-0.02944197692 -0.09699654579 0.0005902264814525957 -0.00016695461518491516
-0.02412051894 -0.09699654579 0.0005801616995791551 -0.00016072194506812134
-0.01879905909 -0.09699654579 0.0005788139096049974 -0.00015445147305638392
-0.01347760204 -0.09699654579 0.000574734792334467 -0.00014777079564398115
-0.00815614406 -0.09699654579 0.000563156973130125 -0.00013853270048972598
-0.00283468538 -0.09699654579 0.0005493640145794945 -0.00012727999427652358
0.002486772602 -0.09699654579 0.0005371927641748183 -0.0001162104364637287
0.007808230817 -0.09699654579 0.0005239388605944227 -0.00010519634076131786
0.0131296888 -0.09699654579 0.0005177906828637014 -9.401743547778647e-05
0.01845114678 -0.09699654579 0.0005083856333805966 -8.305756408054173e-05
0.02377260476 -0.09699654579 0.0004979774391580597 -7.2283349891721e-05
0.02909406275 -0.09699654579 0.0004941198917046964 -6.154254387965397e-05
0.03441552073 -0.09699654579 0.0004862258862045647 -5.0753150160309886e-05
0.03973697871 -0.09699654579 0.00048183771541128744 -3.9992298824915915e-05
0.04505843669 -0.09699654579 0.00047490338061917793 -3.402466116728333e-05
0.05037989467 -0.09699654579 0.00047138868583736725 -3.6020404802963594e-05
0.05570135266 -0.09699654579 0.0004665199090068894 -3.805676357496862e-05
0.06102281436 -0.09699654579 0.0004643935753692258 -4.014767383773703e-05
0.06634426862 -0.09699654579 0.00046008844357859724 -4.2131344328151685e-05
0.0716657266 -0.09699654579 0.00044993737658300114 -4.4084470997699996e-05
0.07698718458 -0.09699654579 0.0004508202311439771 -4.6842095254729394e-05
0.08230864257 -0.09699654579 0.0004472928387850398 -4.953242400929998e-05
0.08763010055 -0.09699654579 0.00044065928926203006 -5.120186408670828e-05
0.09295155853 -0.09699654579 0.00043155050909899094 -5.4145256144907664e-05
0.09827301651 -0.09699654579 0.00043265666875350354 -5.6409146952535496e-05
0.1035944745 -0.09699654579 0.00044716056727407753 -6.119018991894044e-05
0.1089159325 -0.09699654579 0.000512304181266247 -7.068959644191215e-05
0.1142373979 -0.09699654579 0.00056635315080869 -8.0147354479611e-05
0.1195588559 -0.09699654579 0.0006201725885904692 -8.978838513121162e-05
0.1248803139 -0.09699654579 0.000674689336550862 -9.926626735246576e-05
0.1302017719 -0.09699654579 0.000732433987275737 -0.00010872335027294647
0.1355232298 -0.09699654579 0.0007192987412124304 -0.00011571456656391236
0.1408446878 -0.09699654579 0.0006644166093334932 -0.00012324259186422877
0.1461661458 -0.09699654579 0.0006169616039947109 -0.0001310982155764085
0.1514876038 -0.09699654579 0.0005715593693209471 -0.00013943716564810703
0.1568090618 -0.09699654579 0.0005228871102096349 -0.00014793550618537289
0.1621305197 -0.09699654579 0.00047092156697587696 -0.00015529323564927457
0.1674519777 -0.09699654579 0.00042923281829144284 -0.00013117656154289852
0.1727734357 -0.09699654579 0.00038963514907301656 -9.609209860750305e-05
0.1780948937 -0.09699654579 0.00034496161591769127 -6.576024643269944e-05
0.1834163517 -0.09699654579 0.0003031598254951053 -3.3702994637308236e-05
0.1887378097 -0.09699654579 0.0002722707970843916 7.4237882736275465e-06
0.1940592676 -0.09699654579 0.00022846175451276496 4.84951139923378e-05
0.1993807256 -0.09699654579 0.00025302931865025033 5.1608316635221716e-05
0.2047021836 -0.09699654579 0.0002855012837156956 4.411412543832884e-05
0.2100236416 -0.09699654579 0.0003040836315320582 6.672073705014559e-05
0.2153450996 -0.09699654579 0.0003222480071746198 9.39934221338975e-05
0.2206665576 -0.09699654579 0.00034188934385257907 0.00012120046787656637
0.2259880155 -0.09699654579 0.0003620682931463774 0.00014680758613230336
0.2313094735 -0.09699654579 0.0003627800033703515 0.00011267689513459862
0.2366309315 -0.09699654579 0.00037274839107796385 4.7550503721666236e-05
0.2419523895 -0.09699654579 0.00037617623432024353 -1.7297347178721993e-05
0.2472738475 -0.09699654579 0.0003815903205515749 -8.270015900483247e-05
0.2525953054 -0.09699654579 0.00038581178479785437 -0.00015069193782413383
0.2579167783 -0.09699654579 0.00039200923783718893 -0.00022201958666939558
0.2632382214 -0.09699654579 0.0004723372037108097 -0.00029655633391909654
0.2685596943 -0.09699654579 0.0005705850928079839 -0.0003717484342490367
0.2738811374 -0.09699654579 0.0006614772904281034 -0.0004444208758550077
0.2792026103 -0.09699654579 0.000739491360664319 -0.0005137598857827394
0.2845240533 -0.09699654579 0.0008092109800096886 -0.0005838557501538242
0.2898455262 -0.09699654579 0.0009006274268844562 -0.0006552128534274231
0.2951669693 -0.09699654579 0.0009409048124797174 -0.0006462617469944138
0.3004884422 -0.09699654579 0.0009704627178064082 -0.0006215501013664182
0.3058098853 -0.09699654579 0.00102467490714873 -0.0005982100574877963
0.3111313581 -0.09699654579 0.0010688180117006103 -0.0005750624069185527
0.3164528012 -0.09699654579 0.001113213061449158 -0.0005441857736739809
0.3217742741 -0.09699654579 0.0011505176171515065 -0.0004980048172266576
0.3270957172 -0.09699654579 0.0011200207414342003 -0.0004559953075079155
0.3324171901 -0.09699654579 0.0010832112858445812 -0.0004136264923624359
0.3377386332 -0.09699654579 0.0010491663136269298 -0.000370625663747473
0.343060106 -0.09699654579 0.001026919723516648 -0.0003278286784285115
0.3483815491 -0.09699654579 0.0009973856842017432 -0.00028561856745934423
0.353703022 -0.09699654579 0.0009615137505132923 -0.0002658318655175548
0.3590244651 -0.09699654579 0.0009315489922153625 -0.00028626586838546267
0.364345938 -0.09699654579 0.0008942080631072629 -0.0003017436395294658
0.369667381 -0.09699654579 0.0008662498290987731 -0.00031764897529992136
0.3749888539 -0.09699654579 0.0008330150042940497 -0.00033467582423242644
0.380310297 -0.09699654579 0.0008024553700781787 -0.00035177605060342096
0.3856317699 -0.09699654579 0.0007984545394487503 -0.00035227595221676256
0.390953213 -0.09699654579 0.0008047550076818481 -0.0003491125221717871
0.3962746859 -0.09699654579 0.0008043070184140755 -0.00034498282689586214
0.4015961289 -0.09699654579 0.0008142748804258488 -0.0003422388046090399
0.4069176018 -0.09699654579 0.0008111325654598125 -0.00033745819516099593
0.4122390449 -0.09699654579 0.0008037809689050508 -0.0003253530508312342
0.4175605178 -0.09699654579 0.0007831108333545595 -0.00030405078900597404
0.4228819609 -0.09699654579 0.000769378074558436 -0.00028391088389922173
0.4282034338 -0.09699654579 0.000751191151177775 -0.0002633464065266822
0.4335248768 -0.09699654579 0.0007310777916303738 -0.00024287611380090996
0.4388463497 -0.09699654579 0.0007040974829898488 -0.00022537884773096058
0.4441677928 -0.09699654579 0.0006761194079706312 -0.00021706563032603934
0.4494892657 -0.09699654579 0.0006403100393102754 -0.00020810522185328302
0.4548107088 -0.09699654579 0.0006051663656350928 -0.00019932381136992784
0.4601321816 -0.09699654579 0.0005724906788781747 -0.0001897027818901572
0.4654536247 -0.09699654579 0.000541797341263739 -0.00018350406327906165
0.4707750976 -0.09699654579 0.0005121402357987217 -0.0001778067156713011
0.4760965407 -0.09699654579 0.0004818573371525736 -0.00017337707097236644
0.4814180136 -0.09699654579 0.0004492806070997373 -0.0001680573515924826
0.4867394567 -0.09699654579 0.0004243310134786944 -0.00016439351379709283
0.4920609295 -0.09699654579 0.000392336747484615 -0.00016420161551038536
0.4973823726 -0.09699654579 0.00035573634906446613 -0.00016446846054293918
0.5027038455 -0.09699654579 0.000321028455190637 -0.00016381376346658432
0.5080252886 -0.09699654579 0.00028235664258149734 -0.00016464454517175751
0.5133467317 -0.09699654579 0.0002502572740027108 -0.00017043759680927275
0.5186682343 -0.09699654579 0.00021259749148057718 -0.00018101879886759056
0.5239896774 -0.09699654579 0.00017502217389081884 -0.00018950625515753338
0.5293111205 -0.09699654579 0.0001350636013478154 -0.00019952776443585664
0.5346325636 -0.09699654579 0.00010340395467723021 -0.00021370516698707655
0.5399540663 -0.09699654579 7.105662640471859e-05 -0.0002307036087531828
0.5452755094 -0.09699654579 3.246285260319317e-05 -0.0002470012475147094
0.5505969524 -0.09699654579 2.351354128036555e-06 -0.00026471221559509875
0.5559183955 -0.09699654579 -3.421672890074537e-05 -0.0002881111953242865
0.5612398982 -0.09699654579 -6.780298662229893e-05 -0.0003158035543003994
0.5665613413 -0.09699654579 -9.997114743509322e-05 -0.0003429641564015138
0.5718827844 -0.09699654579 -0.0001396708352558603 -0.00037197057174923786
0.5772042274 -0.09699654579 -0.00017530939643495592 -0.00040957033640136835
0.5825257301 -0.09699654579 -0.00020933966478104592 -0.0004461402704267203
0.5878471732 -0.09699654579 -0.0002400786001212129 -0.00048605198174194586
0.5931686163 -0.09699654579 -0.00027303409125957007 -0.0005327798904011815
0.5984900594 -0.09699654579 -0.0002969605258765569 -0.0005806599664096169
0.6038115621 -0.09699654579 -0.00032585933082820767 -0.0006334784760343389
0.6091330051 -0.09699654579 -0.00034763433453015817 -0.0006927393464395852
0.6144544482 -0.09699654579 -0.0003791152599988239 -0.0007509612641347841
0.6197758913 -0.09699654579 -0.00039577392964546356 -0.0008177413777411207
0.625097394 -0.09699654579 -0.0004222377356194813 -0.0008852709654420249
0.6304188371 -0.09699654579 -0.00042800256048163525 -0.0009604401318832291
0.6357402802 -0.09699654579 -0.00044115161079475525 -0.001038148249740254
0.6410617828 -0.09699654579 -0.00043397428925593653 -0.0011132001283807862
0.6463832259 -0.09699654579 -0.0004312275002502202 -0.0011904779863338671
0.651704669 -0.09699654579 -0.0004244402142675194 -0.0012666099105720441
0.6570261121 -0.09699654579 -0.00041700727132840376 -0.0013414972509860836
0.6623476148 -0.09699654579 -0.0004090514921791283 -0.001417681411529687
0.6676690578 -0.09699654579 -0.0003935304722188169 -0.0014946704780659994
0.6729905009 -0.09699654579 -0.0003670727152719941 -0.001576219205463877
0.678311944 -0.09699654579 -0.0003476733432990374 -0.0016593069225557331
0.6836334467 -0.09699654579 -0.0003198355974718648 -0.0017419843242246814
0.6889548898 -0.09699654579 -0.00028786450873689883 -0.0018248608804924894
0.6942763329 -0.09699654579 -0.0002485715003189563 -0.0019087640811334082
0.6995977759 -0.09699654579 -0.00021144092388740034 -0.0019964815275660477
0.7049192786 -0.09699654579 -0.00017444054277442156 -0.0020864476299481214
0.7102407217 -0.09699654579 -0.00013390214671822942 -0.0021786262403825866
0.7155621648 -0.09699654579 -6.630568791034748e-05 -0.002272989122424363
0.7208836079 -0.09699654579 1.5482543171094733e-06 -0.0023706849188727215
0.7262051105 -0.09699654579 7.659034661190417e-05 -0.0024686493952617706
0.7315265536 -0.09699654579 0.0001726925485230268 -0.0025684164386118344
0.7368479967 -0.09699654579 0.0002825999526092009 -0.002666190289775306
0.7421694398 -0.09699654579 0.00040710942427224706 -0.0027530984921423094
0.7474909425 -0.09699654579 0.0005427187628150585 -0.0028356048413606437
0.7528123856 -0.09699654579 0.0007002771520636275 -0.0029056159826967394
0.7581338286 -0.09699654579 0.0008625836646440006 -0.002966084464708652
-0.3008363545 -0.09367749095 0.0008432061367581714 -0.00019091138530434983
-0.2955148816 -0.09367749095 0.0008575842447479443 -0.00019180457704785802
-0.2901934385 -0.09367749095 0.0008605804928786812 -0.00016450457134929735
-0.2848719656 -0.09367749095 0.0008534812872362954 -0.00017379433696984584
-0.2795505226 -0.09367749095 0.0008842271524369935 -0.00016047656189093574
-0.2742290497 -0.09367749095 0.0008984397611284627 -0.00020863319158809286
-0.2689076066 -0.09367749095 0.0009286662286111192 -0.00026560512699053395