VARIABLES = X,Y,phix,phiy
ZONE I=200,J=200,F=POINT 
-0.3008363545 -0.1003156006 -0.0006774025593148147 0.0006934905818556514
-0.2955148816 -0.1003156006 -0.0006487719072107534 0.0006998361471948538
-0.2901934385 -0.1003156006 -0.0006207339556931185 0.0006925479159374411
-0.2848719656 -0.1003156006 -0.0005969179322927484 0.0006886076558356837
-0.2795505226 -0.1003156006 -0.0005726792824240166 0.0006840307738713552
-0.2742290497 -0.1003156006 -0.0005760452087280649 0.0006887953919235477
-0.2689076066 -0.1003156006 -0.0005392677652764033 0.000708240009333063
-0.2635861337 -0.1003156006 -0.000512862893958947 0.0007188688046628817
-0.2582646906 -0.1003156006 -0.0005160145902820104 0.0007049575767794519
-0.2529432178 -0.1003156006 -0.0005331585217261539 0.0006796677924208567
-0.2476217598 -0.1003156006 -0.000549191170351693 0.0006875465895186245
-0.2423003018 -0.1003156006 -0.0005798998701993639 0.0007235207045079572
-0.2369788438 -0.1003156006 -0.0006132354877823799 0.0007198496279417279
-0.2316573858 -0.1003156006 -0.0006546974675513216 0.0007006352450049764
-0.2263359278 -0.1003156006 -0.0006961992737334348 0.0007067693133586243
-0.2210144699 -0.1003156006 -0.0006781102424247573 0.0006982604450161147
-0.2156930119 -0.1003156006 -0.0006603998678595072 0.0006887701293065181
-0.2103715539 -0.1003156006 -0.0006340097337682449 0.0006834216751896034
-0.2050500959 -0.1003156006 -0.0006486709310512251 0.0006595259792400008
-0.1997286379 -0.1003156006 -0.0006647739068628185 0.0006009060217527769
-0.19440718 -0.1003156006 -0.0006914444243947449 0.0005328073539548471
-0.189085722 -0.1003156006 -0.0006847629936031427 0.0004845359868636354
-0.183764264 -0.1003156006 -0.0006855810523100624 0.0004625893766194881
-0.178442806 -0.1003156006 -0.0006832537640029575 0.00045088708648768737
-0.173121348 -0.1003156006 -0.000665858441428083 0.00045083848022692925
-0.16779989 -0.1003156006 -0.0006331357297827122 0.0004558292905186984
-0.1624784321 -0.1003156006 -0.0006060091666936606 0.0004562737949934906
-0.1571569741 -0.1003156006 -0.0005770775615392235 0.0004491210293185451
-0.1518355161 -0.1003156006 -0.0005496950173357831 0.0004397764830379212
-0.1465140581 -0.1003156006 -0.000517436931598765 0.0004325220644100413
-0.1411926001 -0.1003156006 -0.0004929207196340116 0.00042164977068482055
-0.1358711421 -0.1003156006 -0.00048249854125808765 0.00040393156579183564
-0.1305496842 -0.1003156006 -0.00046945226947734574 0.0003861714756963393
-0.1252282262 -0.1003156006 -0.00046069614232053017 0.0003759893851920886
-0.1199067682 -0.1003156006 -0.00046242920435612484 0.00037484167940725696
-0.1145853102 -0.1003156006 -0.0004548580856956307 0.0003747284354722679
-0.1092638522 -0.1003156006 -0.00046180620171416766 0.0003738056298754784
-0.1039423943 -0.1003156006 -0.0004619594434132097 0.00037411299982702717
-0.09862093627 -0.1003156006 -0.0004485665743307558 0.0003591299424631581
-0.09329947084 -0.1003156006 -0.0004496457850795094 0.000342273446178958
-0.08797801286 -0.1003156006 -0.00044936032806968236 0.0003252140551136444
-0.08265655488 -0.1003156006 -0.00044195565731258035 0.00030697637585701563
-0.0773350969 -0.1003156006 -0.0004308526764358549 0.0002702742827584004
-0.07201363891 -0.1003156006 -0.000400337812284907 0.00023399204164476978
-0.06669218093 -0.1003156006 -0.0003861019302477298 0.00019777758064185513
-0.06137072667 -0.1003156006 -0.0003658570027767709 0.0001600255204224542
-0.05604926869 -0.1003156006 -0.00032779337857232285 0.00014350927649541976
-0.05072781071 -0.1003156006 -0.0002759500067765176 0.0001317984733314345
-0.045406349 -0.1003156006 -0.00023547034860165746 0.00012042762566476306
-0.04008489102 -0.1003156006 -0.00019085537803628614 0.00010833250632001206
-0.03476343304 -0.1003156006 -0.00014916449343126516 0.00010504531435062055
-0.02944197692 -0.1003156006 -0.0001273065616971741 0.00012073923872265082
-0.02412051894 -0.1003156006 -0.00010232193054604079 0.00013713018715734473
-0.01879905909 -0.1003156006 -7.304985882038053e-05 0.00015442655496852682
-0.01347760204 -0.1003156006 -5.123187219164938e-05 0.00017076353709743705
-0.00815614406 -0.1003156006 -4.2934346663591834e-05 0.00017750842143652608
-0.00283468538 -0.1003156006 -2.6474689637350946e-05 0.00017631070979982864
0.002486772602 -0.1003156006 -2.3880129075184787e-05 0.00017601045033347252
0.007808230817 -0.1003156006 -9.525051190475135e-06 0.00017577073992079833
0.0131296888 -0.1003156006 -1.0303130252302274e-05 0.00017468455801216372
0.01845114678 -0.1003156006 -3.090865785064655e-06 0.000185319770909446
0.02377260476 -0.1003156006 -6.695560648970574e-06 0.00020526989610680985
0.02909406275 -0.1003156006 3.7349708340458614e-07 0.0002265936606164304
0.03441552073 -0.1003156006 5.881650561324362e-06 0.00024791873253628914
0.03973697871 -0.1003156006 -1.6122469025345444e-06 0.0002680929681945855
0.04505843669 -0.1003156006 -7.5674608490596935e-06 0.00028053775598701575
0.05037989467 -0.1003156006 -4.684422986117566e-05 0.0002791252923862522
0.05570135266 -0.1003156006 -8.449809543656283e-05 0.0002784792160083464
0.06102281436 -0.1003156006 -0.00012852282287454354 0.0002779689713558566
0.06634426862 -0.1003156006 -0.00017330309305640338 0.00027667851200121924
0.0716657266 -0.1003156006 -0.00019791571439969403 0.0002746305663455882
0.07698718458 -0.1003156006 -0.0002308604075391065 0.00021790073609981664
0.08230864257 -0.1003156006 -0.0002577666854388941 0.00015631526261956422
0.08763010055 -0.1003156006 -0.00029173762218958764 9.340103921515965e-05
0.09295155853 -0.1003156006 -0.00031951639679961627 3.174599130943146e-05
0.09827301651 -0.1003156006 -0.0003476042381287639 -2.9075332727584144e-05
0.1035944745 -0.1003156006 -0.00036387208374831964 -9.917403095026516e-05
0.1089159325 -0.1003156006 -0.0003111509720244503 -0.00019072850342053002
0.1142373979 -0.1003156006 -0.0002706309356296071 -0.00028183220531598723
0.1195588559 -0.1003156006 -0.00023160195850511575 -0.0003655102867256983
0.1248803139 -0.1003156006 -0.00018760113572240933 -0.00045147120107802625
0.1302017719 -0.1003156006 -0.00013917096827382688 -0.0005399110992307443
0.1355232298 -0.1003156006 -3.732385627973542e-05 -0.0005924049684353846
0.1408446878 -0.1003156006 0.00010025107377963008 -0.0006154032045777188
0.1461661458 -0.1003156006 0.0002436424144905514 -0.0006373767589689091
0.1514876038 -0.1003156006 0.00037874149182951487 -0.0006589147666774713
0.1568090618 -0.1003156006 0.0005276370744634586 -0.0006809399079303883
0.1621305197 -0.1003156006 0.0006579675056700478 -0.0007029082281732053
0.1674519777 -0.1003156006 0.0007489619290588726 -0.0006309964039559826
0.1727734357 -0.1003156006 0.0008331000581684584 -0.000514280036122663
0.1780948937 -0.1003156006 0.0009122126506845473 -0.0003973643184631988
0.1834163517 -0.1003156006 0.0010015062004179848 -0.0002810477637328897
0.1887378097 -0.1003156006 0.0010719635213419132 -0.00016919754552202512
0.1940592676 -0.1003156006 0.001156536527560534 -6.381609699075125e-05
0.1993807256 -0.1003156006 0.0011117059846059792 3.238319149601368e-05
0.2047021836 -0.1003156006 0.0010350322099450828 0.00012532970720093505
0.2100236416 -0.1003156006 0.0009546921460487216 0.00021683443632255174
0.2153450996 -0.1003156006 0.0008893584185000454 0.00030174297060185385
0.2206665576 -0.1003156006 0.0008210091721448528 0.0003894720050416165
0.2259880155 -0.1003156006 0.000742710617191144 0.00047758166433976645
0.2313094735 -0.1003156006 0.0006689421921502528 0.00046844896258633307
0.2366309315 -0.1003156006 0.0006116100274839028 0.0004346750809048048
0.2419523895 -0.1003156006 0.0005458735740751378 0.000399801358753442
0.2472738475 -0.1003156006 0.00048408571321051884 0.0003666766446186747
0.2525953054 -0.1003156006 0.0004153533389392653 0.00033395227529357433
0.2579167783 -0.1003156006 0.000363780359771984 0.00030558155464044536
0.2632382214 -0.1003156006 0.00034689828362582985 0.0002781397331238652
0.2685596943 -0.1003156006 0.0003640855516806887 0.00024970491149302657
0.2738811374 -0.1003156006 0.00037489995317396705 0.00022117303662204228
0.2792026103 -0.1003156006 0.0003920157408225852 0.00019301497167725903
0.2845240533 -0.1003156006 0.0003936224241614506 0.00016604841406525088
0.2898455262 -0.1003156006 0.0004067474326235123 0.00013870576449503591
0.2951669693 -0.1003156006 0.0004191732504556029 0.00012532182978927377
0.3004884422 -0.1003156006 0.00043685307870597 0.00011415185052745577
0.3058098853 -0.1003156006 0.0004588141030240776 0.00010335246061722701
0.3111313581 -0.1003156006 0.0004764469471870709 9.219008078554351e-05
0.3164528012 -0.1003156006 0.0005005649320978797 8.112285997055438e-05
0.3217742741 -0.1003156006 0.0005101564019117608 7.009557760476358e-05
0.3270957172 -0.1003156006 0.000530889849806435 6.829016657321746e-05
0.3324171901 -0.1003156006 0.0005529602753883283 6.655282694519434e-05
0.3377386332 -0.1003156006 0.0005736182578381374 6.503100399901513e-05
0.343060106 -0.1003156006 0.0005933776089207806 6.208609872414586e-05
0.3483815491 -0.1003156006 0.0006011269864132106 6.048023017205221e-05
0.353703022 -0.1003156006 0.0006153202011306621 6.419080757905192e-05
0.3590244651 -0.1003156006 0.0006051348682991876 7.45644772836449e-05
0.364345938 -0.1003156006 0.0006074433204568992 8.637770098745126e-05
0.369667381 -0.1003156006 0.0006014959027752599 9.5747305320904e-05
0.3749888539 -0.1003156006 0.0006036238988953739 0.00010510534796878756
0.380310297 -0.1003156006 0.000595070834103169 0.00011551053653215601
0.3856317699 -0.1003156006 0.0005845895180554658 9.109381186972182e-05
0.390953213 -0.1003156006 0.000582620970643942 6.123883459663103e-05
0.3962746859 -0.1003156006 0.00058806228553169 3.114249080128565e-05
0.4015961289 -0.1003156006 0.0005824770230237555 -1.2144613447422128e-06
0.4069176018 -0.1003156006 0.0005733576789198275 -3.109915020005579e-05
0.4122390449 -0.1003156006 0.000596003167170569 -5.861425526986129e-05
0.4175605178 -0.1003156006 0.0006295654290277723 -8.730890547338556e-05
0.4228819609 -0.1003156006 0.0006739230898281516 -0.00011878119896017533
0.4282034338 -0.1003156006 0.0007221289665239074 -0.00014819464690354864
0.4335248768 -0.1003156006 0.0007518551419836826 -0.00017562793115015826
0.4388463497 -0.1003156006 0.0007975134481716167 -0.0001895201317084491
0.4441677928 -0.1003156006 0.0008598619970189413 -0.00017474776362750113
0.4494892657 -0.1003156006 0.0009133006896516743 -0.00016064141351244108
0.4548107088 -0.1003156006 0.0009708584543173702 -0.00014942159063901586
0.4601321816 -0.1003156006 0.0010279647561221457 -0.00013514401109205706
0.4654536247 -0.1003156006 0.0010703047154866307 -0.00011491652420992781
0.4707750976 -0.1003156006 0.0010941713256508048 -8.520202015973922e-05
0.4760965407 -0.1003156006 0.0011184543946583313 -5.789405104532153e-05
0.4814180136 -0.1003156006 0.0011459893424424382 -3.0375979151962537e-05
0.4867394567 -0.1003156006 0.001170032432726758 -3.306815350788018e-06
0.4920609295 -0.1003156006 0.0011798291424879154 1.7461888308644407e-05
0.4973823726 -0.1003156006 0.0011866831629311584 3.838782281917502e-05
0.5027038455 -0.1003156006 0.0011926579082466111 5.650414415106144e-05
0.5080252886 -0.1003156006 0.00120016484366751 7.665910554277481e-05
0.5133467317 -0.1003156006 0.0012091919933938382 9.048596714588435e-05
0.5186682343 -0.1003156006 0.0012084316299085438 9.964100501465426e-05
0.5239896774 -0.1003156006 0.0012154311381241615 0.0001083477185428824
0.5293111205 -0.1003156006 0.001206603327168753 0.00011505117807403746
0.5346325636 -0.1003156006 0.001206157163034726 0.00011745445448208795
0.5399540663 -0.1003156006 0.0012098174210114386 0.00011124629787624963
0.5452755094 -0.1003156006 0.0012126041372169391 0.00010333781554443524
0.5505969524 -0.1003156006 0.0012165191865506503 9.658690053219862e-05
0.5559183955 -0.1003156006 0.0012322307700541656 8.606782108872131e-05
0.5612398982 -0.1003156006 0.0012375064933291728 6.855539502620785e-05
0.5665613413 -0.1003156006 0.0012573636734076173 5.243136888896046e-05
0.5718827844 -0.1003156006 0.0012781846723517987 3.754390117939053e-05
0.5772042274 -0.1003156006 0.001289252660333077 2.2360589713252425e-05
0.5825257301 -0.1003156006 0.0013137085662610415 6.35492063597308e-06
0.5878471732 -0.1003156006 0.0013415279546179237 -6.475961799006598e-06
0.5931686163 -0.1003156006 0.0013728486348778563 -2.0106855198144468e-05
0.5984900594 -0.1003156006 0.0013808711234543918 -3.290048697549237e-05
0.6038115621 -0.1003156006 0.0014130114342471205 -5.1425828851604785e-05
0.6091330051 -0.1003156006 0.001439816926858965 -7.075023394589114e-05
0.6144544482 -0.1003156006 0.0014535137688023222 -9.052409476506703e-05
0.6197758913 -0.1003156006 0.0014684367399982366 -0.00010552597988931127
0.625097394 -0.1003156006 0.0014857640987193665 -0.0001254357271393727
0.6304188371 -0.1003156006 0.001510574488121616 -0.0001476543064384173
0.6357402802 -0.1003156006 0.0015315887032668297 -0.00017186425324280905
0.6410617828 -0.1003156006 0.0015511411660910292 -0.00020145766256347118
0.6463832259 -0.1003156006 0.0015718023772029455 -0.00023287154443071348
0.651704669 -0.1003156006 0.0016000500267028513 -0.00026651071938937394
0.6570261121 -0.1003156006 0.0016158154632300158 -0.00030325358469614547
0.6623476148 -0.1003156006 0.001657699182616981 -0.0003426888035269411
0.6676690578 -0.1003156006 0.0016839427188364983 -0.00038639324013694235
0.6729905009 -0.1003156006 0.0017153741635472456 -0.0004376204097813923
0.678311944 -0.1003156006 0.0017563655817216276 -0.0004912269155246549
0.6836334467 -0.1003156006 0.001792063477168347 -0.0005473738252354136
0.6889548898 -0.1003156006 0.0018424043490743445 -0.000616177332858736
0.6942763329 -0.1003156006 0.001903966641315782 -0.0006902895130639168
0.6995977759 -0.1003156006 0.0019591678933122882 -0.0007694886136357168
0.7049192786 -0.1003156006 0.0020234789059572415 -0.0008526173550448056
0.7102407217 -0.1003156006 0.002102422651073219 -0.0009492934855336583
0.7155621648 -0.1003156006 0.0021765198643252984 -0.0010577801906717663
0.7208836079 -0.1003156006 0.0022523032904865395 -0.0011762284806114609
0.7262051105 -0.1003156006 0.002341952703760897 -0.0013011001120905251
0.7315265536 -0.1003156006 0.0024469981799876465 -0.0014463497948937801
0.7368479967 -0.1003156006 0.002587414026714649 -0.001612350728063813
0.7421694398 -0.1003156006 0.0027211153629736395 -0.0017920747418859713
0.7474909425 -0.1003156006 0.0028799709736896054 -0.001971489730753285
0.7528123856 -0.1003156006 0.003083190961226926 -0.0021820496481912894
0.7581338286 -0.1003156006 0.0033064649589559965 -0.0024089627093491933
-0.3008363545 -0.09699654579 -0.0006662459061352261 0.0006762114758044488
-0.2955148816 -0.09699654579 -0.0006510275166440572 0.0006811503234378879
-0.2901934385 -0.09699654579 -0.000614106482186081 0.0006805730130179411
-0.2848719656 -0.09699654579 -0.0005911346156840452 0.000677167896818131
-0.2795505226 -0.09699654579 -0.0005658462584423075 0.0006668427836484527
-0.2742290497 -0.09699654579 -0.0005476756153736468 0.0006749938949666141
-0.2689076066 -0.09699654579 -0.0005094347036435021 0.0007025516719973723
-0.2635861337 -0.09699654579 -0.00047812041163116216 0.0007158532109773054
-0.2582646906 -0.09699654579 -0.0004898685185425086 0.0007001885636593517
-0.2529432178 -0.09699654579 -0.0004990527997912468 0.0006984843278718801
-0.2476217598 -0.09699654579 -0.0005348065379673728 0.000731897040660229
-0.2423003018 -0.09699654579 -0.0005679420669452654 0.0007415586750500244
-0.2369788438 -0.09699654579 -0.0005915488671947809 0.0007016022177090785
-0.2316573858 -0.09699654579 -0.0006418681050045085 0.0006992078218371582
-0.2263359278 -0.09699654579 -0.0006940545186067495 0.0007193200303283831
-0.2210144699 -0.09699654579 -0.0006832581596082743 0.0007128731122693328
-0.2156930119 -0.09699654579 -0.0006571097666477237 0.0007078864560568626
-0.2103715539 -0.09699654579 -0.0006506908438885803 0.0006707704450937115
-0.2050500959 -0.09699654579 -0.0006531971318551247 0.0006131197825867382
-0.1997286379 -0.09699654579 -0.0006732668249474437 0.0005447832460378215
-0.19440718 -0.09699654579 -0.0006943534675731688 0.0004926990527817945
-0.189085722 -0.09699654579 -0.0006944413270764796 0.0004870072751443954
-0.183764264 -0.09699654579 -0.0006947634904448339 0.00047879253038397986
-0.178442806 -0.09699654579 -0.0006925953659483036 0.0004534157197867973
-0.173121348 -0.09699654579 -0.0006755165067042877 0.0004490292977443081
-0.16779989 -0.09699654579 -0.000640521416344268 0.0004461735502526827
-0.1624784321 -0.09699654579 -0.0006053748617848702 0.00043741448668563874
-0.1571569741 -0.09699654579 -0.0005686485031753216 0.0004309053030635662
-0.1518355161 -0.09699654579 -0.000534912086038172 0.00041934727533260896
-0.1465140581 -0.09699654579 -0.0005064538862867002 0.00040862371748538143
-0.1411926001 -0.09699654579 -0.0004817676748476375 0.0003981256847179379
-0.1358711421 -0.09699654579 -0.0004809233048196663 0.00038913140409240285
-0.1305496842 -0.09699654579 -0.00047262299122327427 0.0003843636093533882
-0.1252282262 -0.09699654579 -0.0004615793955470494 0.00038001303467540676
-0.1199067682 -0.09699654579 -0.00046431389277179085 0.0003793938225406049
-0.1145853102 -0.09699654579 -0.0004615971674981469 0.00037871776354244567
-0.1092638522 -0.09699654579 -0.00046007743196127576 0.00037745475089368284
-0.1039423943 -0.09699654579 -0.0004743024089996799 0.00037627175044440894
-0.09862093627 -0.09699654579 -0.0004724299663991225 0.0003582332621865353
-0.09329947084 -0.09699654579 -0.00047090143399461794 0.00033884077654787584
-0.08797801286 -0.09699654579 -0.00048125671324033984 0.00031875174708687455
-0.08265655488 -0.09699654579 -0.0004860638492708063 0.0002995811972283183
-0.0773350969 -0.09699654579 -0.0004561917945582274 0.00026135253678675216
-0.07201363891 -0.09699654579 -0.0004298161378272579 0.00022261106234027116
-0.06669218093 -0.09699654579 -0.00040632677047996025 0.00018397352584762188
-0.06137072667 -0.09699654579 -0.000385892319924283 0.00014455741964073754
-0.05604926869 -0.09699654579 -0.00033090683542233624 0.00012647094803337264
-0.05072781071 -0.09699654579 -0.00028264537358894037 0.0001139762173552643
-0.045406349 -0.09699654579 -0.00021916097828023382 0.0001013813462381731
-0.04008489102 -0.09699654579 -0.00016467403663942906 8.845857759062633e-05
-0.03476343304 -0.09699654579 -0.00012532758387457534 8.553817616981465e-05
-0.02944197692 -0.09699654579 -0.00011033961085122244 0.00010437490187433594
-0.02412051894 -0.09699654579 -8.141798603960459e-05 0.00012279695760277658
-0.01879905909 -0.09699654579 -5.962501311939672e-05 0.00014158930572570646
-0.01347760204 -0.09699654579 -3.048965217258609e-05 0.00016058782648948702
-0.00815614406 -0.09699654579 -2.2041275523687942e-05 0.0001687322698491416
-0.00283468538 -0.09699654579 -1.1635587062183598e-05 0.00016797994924007233
0.002486772602 -0.09699654579 7.0355384006773335e-06 0.0001671055471965857
0.007808230817 -0.09699654579 1.3012929037019461e-05 0.00016609515912816412
0.0131296888 -0.09699654579 2.5892288450048574e-05 0.00016527991476278714
0.01845114678 -0.09699654579 3.440261214063869e-05 0.000178472021055276
0.02377260476 -0.09699654579 3.239190331705635e-05 0.00020182161946179087
0.02909406275 -0.09699654579 3.3094490747899923e-05 0.00022653418088623107
0.03441552073 -0.09699654579 4.4802398885807044e-05 0.00025152305662440105
0.03973697871 -0.09699654579 4.11606070857511e-05 0.0002750226171667967
0.04505843669 -0.09699654579 2.5383784792271605e-05 0.0002908555566227031
0.05037989467 -0.09699654579 -2.203271832823291e-05 0.00029230143576188075
0.05570135266 -0.09699654579 -6.323218036190856e-05 0.0002942944133123858
0.06102281436 -0.09699654579 -0.00011016795018266863 0.00029714395616686886
0.06634426862 -0.09699654579 -0.00015175891159603747 0.000298391705410875
0.0716657266 -0.09699654579 -0.00019479748765644964 0.00029953059615601914
0.07698718458 -0.09699654579 -0.00023426454619290154 0.00023725626714497965
0.08230864257 -0.09699654579 -0.0002758882708213205 0.0001709514936994855
0.08763010055 -0.09699654579 -0.00030979051184346556 0.000105489187289318
0.09295155853 -0.09699654579 -0.0003460614653515627 4.0356896190244713e-05
0.09827301651 -0.09699654579 -0.00038090037166140786 -2.543751433012095e-05
0.1035944745 -0.09699654579 -0.00039522324477807346 -0.000104116842588201
0.1089159325 -0.09699654579 -0.0003462301887018838 -0.0002083634589363419
0.1142373979 -0.09699654579 -0.00030544782500250054 -0.0003074591900408963
0.1195588559 -0.09699654579 -0.00025741297518277464 -0.0004038121608892672
0.1248803139 -0.09699654579 -0.0002188657749269927 -0.0005002673273754359
0.1302017719 -0.09699654579 -0.0001788276178038575 -0.0005986127152418746
0.1355232298 -0.09699654579 -5.413786252695541e-05 -0.0006572962421996257
0.1408446878 -0.09699654579 0.00010396361144413121 -0.0006825747400772462
0.1461661458 -0.09699654579 0.00026623257922213535 -0.0007088740783617665
0.1514876038 -0.09699654579 0.0004225137810935648 -0.0007350394169514354
0.1568090618 -0.09699654579 0.0005797008761903366 -0.0007613057240519662
0.1621305197 -0.09699654579 0.0007353391440137286 -0.0007850151541286482
0.1674519777 -0.09699654579 0.0008435468657889832 -0.0006983583235517563
0.1727734357 -0.09699654579 0.0009272824702381571 -0.0005680155037852513
0.1780948937 -0.09699654579 0.0010215176898059383 -0.00043360822873108847
0.1834163517 -0.09699654579 0.0011134281520537772 -0.0003004613290042257
0.1887378097 -0.09699654579 0.0011942754494636617 -0.0001784375365535548
0.1940592676 -0.09699654579 0.0012777688043621035 -5.630531684727277e-05
0.1993807256 -0.09699654579 0.001217477939179234 5.1843644981634295e-05
0.2047021836 -0.09699654579 0.0011214305434561745 0.0001556131508160337
0.2100236416 -0.09699654579 0.00103351170859345 0.00024787886408044466
0.2153450996 -0.09699654579 0.0009551536725283387 0.0003400807948717436
0.2206665576 -0.09699654579 0.0008605326028517066 0.0004322156704750088
0.2259880155 -0.09699654579 0.000781413904893157 0.0005240588148055727
0.2313094735 -0.09699654579 0.0007046159165238517 0.0005077580085613301
0.2366309315 -0.09699654579 0.0006275713586318209 0.0004640109601928338
0.2419523895 -0.09699654579 0.0005448158323137644 0.0004207475137574234
0.2472738475 -0.09699654579 0.00047274162150494727 0.00037724718695731843
0.2525953054 -0.09699654579 0.0004086251840571448 0.0003395786031193822
0.2579167783 -0.09699654579 0.00034876402779451544 0.0003025565403177705
0.2632382214 -0.09699654579 0.0003372487403624 0.0002696404850098189
0.2685596943 -0.09699654579 0.0003630352271178969 0.00023842112561830168
0.2738811374 -0.09699654579 0.0003799319814386246 0.00020865679571814623
0.2792026103 -0.09699654579 0.0003827282835832504 0.00017863166686996792
0.2845240533 -0.09699654579 0.00040335080091227597 0.00014848249790549916
0.2898455262 -0.09699654579 0.0004183072053181851 0.00011793862330761797
0.2951669693 -0.09699654579 0.00044364323609856954 0.00010404924193018672
0.3004884422 -0.09699654579 0.0004554377074161087 9.251878762473484e-05
0.3058098853 -0.09699654579 0.0004812905826503224 8.242287569767302e-05
0.3111313581 -0.09699654579 0.000502409112097614 7.267639077016027e-05
0.3164528012 -0.09699654579 0.0005235048464775835 6.19128849620899e-05
0.3217742741 -0.09699654579 0.0005445423265918904 5.199527117349656e-05
0.3270957172 -0.09699654579 0.0005604119845315174 5.1182799224975215e-05
0.3324171901 -0.09699654579 0.0005731302830965485 5.2668435054791025e-05
0.3377386332 -0.09699654579 0.0005951171248922959 5.257451538955245e-05
0.343060106 -0.09699654579 0.0006048829988885961 5.197754361720128e-05
0.3483815491 -0.09699654579 0.0006253348644733967 5.191249630917629e-05
0.353703022 -0.09699654579 0.0006337848657446625 5.7638459815474446e-05
0.3590244651 -0.09699654579 0.0006284724554705282 7.254958396098445e-05
0.364345938 -0.09699654579 0.0006206938505641079 8.575367606114407e-05
0.369667381 -0.09699654579 0.0006080957987710757 9.741349477934561e-05
0.3749888539 -0.09699654579 0.0006003680991168668 0.00010946431474446115
0.380310297 -0.09699654579 0.0005899036217172403 0.00012089520458951985
0.3856317699 -0.09699654579 0.0005917154861013153 9.598917355582317e-05
0.390953213 -0.09699654579 0.0005899544799595735 6.0558053911037633e-05
0.3962746859 -0.09699654579 0.000576556853099579 2.2818378822376396e-05
0.4015961289 -0.09699654579 0.0005761956215391919 -1.038153000925765e-05
0.4069176018 -0.09699654579 0.0005802226268029033 -4.451504173320765e-05
0.4122390449 -0.09699654579 0.0005887702095078249 -7.89025998914832e-05
0.4175605178 -0.09699654579 0.0006391947326978982 -0.0001132818467237486
0.4228819609 -0.09699654579 0.0006770428113869961 -0.00014371186407672421
0.4282034338 -0.09699654579 0.000719869238890474 -0.00017402893005966788
0.4335248768 -0.09699654579 0.0007638647664222588 -0.0002050071521587321
0.4388463497 -0.09699654579 0.0008061704215787864 -0.0002226476077717391
0.4441677928 -0.09699654579 0.0008721940380905796 -0.00020647857135821268
0.4494892657 -0.09699654579 0.0009270850471130609 -0.00018955349094162933
0.4548107088 -0.09699654579 0.0009824517447304482 -0.00017387930819126463
0.4601321816 -0.09699654579 0.0010451232304894453 -0.00015728813280895885
0.4654536247 -0.09699654579 0.0010889206663252512 -0.0001368362571419003
0.4707750976 -0.09699654579 0.0011084209024771138 -0.00010556081858233688
0.4760965407 -0.09699654579 0.0011261989775559578 -7.037198664500206e-05
0.4814180136 -0.09699654579 0.0011563421274577612 -3.822376893675749e-05
0.4867394567 -0.09699654579 0.0011807129794811878 -8.327917522619288e-06
0.4920609295 -0.09699654579 0.0011969915903147137 1.4942374221994174e-05
0.4973823726 -0.09699654579 0.0011914963103238395 3.576302100120013e-05
0.5027038455 -0.09699654579 0.0012009840385856945 5.382850498230968e-05
0.5080252886 -0.09699654579 0.001212993730233409 7.590470219374237e-05
0.5133467317 -0.09699654579 0.0012238656958429802 9.087305960482796e-05
0.5186682343 -0.09699654579 0.0012122475076493306 9.767621495225724e-05
0.5239896774 -0.09699654579 0.0012127719096199513 0.00010685295682852295
0.5293111205 -0.09699654579 0.0012070408171546085 0.00011573830988542442
0.5346325636 -0.09699654579 0.0012056136459413305 0.00011716843751159499
0.5399540663 -0.09699654579 0.0012157245466388612 0.00010760246064751307
0.5452755094 -0.09699654579 0.0012113000650054609 0.0001007192574488237
0.5505969524 -0.09699654579 0.0012128248915025555 9.30337986511642e-05
0.5559183955 -0.09699654579 0.0012298025679060415 7.755345218416847e-05
0.5612398982 -0.09699654579 0.0012375792147209653 5.967983160966501e-05
0.5665613413 -0.09699654579 0.001251581884655155 4.204123773201323e-05
0.5718827844 -0.09699654579 0.0012700104749421859 2.3796544527792554e-05
0.5772042274 -0.09699654579 0.0012935775761119229 9.68159332150856e-06
0.5825257301 -0.09699654579 0.0013125308503985093 -5.510123779885317e-06
0.5878471732 -0.09699654579 0.0013279218012121961 -2.153587549495381e-05
0.5931686163 -0.09699654579 0.0013564376349232967 -3.4766970606646005e-05
0.5984900594 -0.09699654579 0.0013797332506010956 -4.7873965707719114e-05
0.6038115621 -0.09699654579 0.0014045171990876397 -6.68895583767444e-05
0.6091330051 -0.09699654579 0.0014270361239429813 -8.503143055079276e-05
0.6144544482 -0.09699654579 0.001445097441947568 -0.00010254923747258023
0.6197758913 -0.09699654579 0.001463422383857024 -0.0001185464341347987
0.625097394 -0.09699654579 0.0014853454704621474 -0.0001375973646652045
0.6304188371 -0.09699654579 0.0014994485300543908 -0.0001589518727811667
0.6357402802 -0.09699654579 0.0015148860554549351 -0.00018299577139164956
0.6410617828 -0.09699654579 0.0015289056250097671 -0.00021300715258711553
0.6463832259 -0.09699654579 0.001557808684883245 -0.0002453007166955209
0.651704669 -0.09699654579 0.0015907468888872742 -0.00027827667764903984
0.6570261121 -0.09699654579 0.0016130965984821923 -0.00031723170583609943
0.6623476148 -0.09699654579 0.0016355557822039714 -0.0003593412661410245
0.6676690578 -0.09699654579 0.0016566102361943572 -0.0004071007411946076
0.6729905009 -0.09699654579 0.0016821101178181432 -0.0004570955484913909
0.678311944 -0.09699654579 0.0017111105257093951 -0.0005118545514965351
0.6836334467 -0.09699654579 0.0017483116067966993 -0.0005716808320799986
0.6889548898 -0.09699654579 0.0018027260064598198 -0.0006413494640984338
0.6942763329 -0.09699654579 0.0018482574562552485 -0.0007171160390394812
0.6995977759 -0.09699654579 0.001894027492226093 -0.0007984666240116166
0.7049192786 -0.09699654579 0.0019490449698723034 -0.0008873594243762194
0.7102407217 -0.09699654579 0.002018317515880836 -0.0009884679113687093
0.7155621648 -0.09699654579 0.002081718990080568 -0.001100538005566631
0.7208836079 -0.09699654579 0.002161402514791455 -0.0012283952987581935
0.7262051105 -0.09699654579 0.002244928893390462 -0.0013651960554196061
0.7315265536 -0.09699654579 0.0023454943143858408 -0.0015182725846048365
0.7368479967 -0.09699654579 0.0024570151208956233 -0.001683357283515531
0.7421694398 -0.09699654579 0.0025875447861262424 -0.0018720003856484329
0.7474909425 -0.09699654579 0.002724519753545915 -0.0020796141891478246
0.7528123856 -0.09699654579 0.0029166751629779893 -0.0023021613003064326
0.7581338286 -0.09699654579 0.003137361415929197 -0.002545349769786644
-0.3008363545 -0.09367749095 -0.0006515234537096367 0.0006529742377415857
-0.2955148816 -0.09367749095 -0.0006379178189392347 0.0006586199054986635
-0.2901934385 -0.09367749095 -0.0006112162802972157 0.0006636421167650054
-0.2848719656 -0.09367749095 -0.0005721751697699052 0.0006524219493334266
-0.2795505226 -0.09367749095 -0.0005536290012702254 0.0006472522045460744
-0.2742290497 -0.09367749095 -0.0005121391147265519 0.0006623323692576121
-0.2689076066 -0.09367749095 -0.0004774760432474072 0.0006870449520439313
-0.2635861337 -0.09367749095 -0.00046139781605820577 0.0007031601477757007
-0.2582646906 -0.09367749095 -0.0004616815348662607 0.0007138912694949707
-0.2529432178 -0.09367749095 -0.0004572026215262758 0.0007307536591083855