VARIABLES = X,Y,phix,phiy
ZONE I=200,J=200,F=POINT 
-0.3008363545 -0.1003156006 -0.0003133117900754717 -0.00045853629400792185
-0.2955148816 -0.1003156006 -0.00030172907517734133 -0.0004543016524010086
-0.2901934385 -0.1003156006 -0.0002901957943407866 -0.00044820032559000477
-0.2848719656 -0.1003156006 -0.000277916738459742 -0.000442222442214838
-0.2795505226 -0.1003156006 -0.0002656444306613005 -0.0004350798266888798
-0.2742290497 -0.1003156006 -0.00025346157561549707 -0.0004259882211388526
-0.2689076066 -0.1003156006 -0.00024080747429674668 -0.00041688231988066073
-0.2635861337 -0.1003156006 -0.00023072502880178473 -0.0004074237968472435
-0.2582646906 -0.1003156006 -0.00022015574715084907 -0.0003955148736806776
-0.2529432178 -0.1003156006 -0.00020970801169227003 -0.0003820925778529408
-0.2476217598 -0.1003156006 -0.00019897509766002674 -0.00036840472686132375
-0.2423003018 -0.1003156006 -0.00019171088472915557 -0.00035527373439414725
-0.2369788438 -0.1003156006 -0.0001854575643023031 -0.00034158035855223024
-0.2316573858 -0.1003156006 -0.00017924948922667616 -0.000326713348897449
-0.2263359278 -0.1003156006 -0.00017476567415763815 -0.0003123405791588635
-0.2210144699 -0.1003156006 -0.00017218422637355245 -0.00030013955193543165
-0.2156930119 -0.1003156006 -0.00016979084397275506 -0.0002874572023717179
-0.2103715539 -0.1003156006 -0.0001684329065185161 -0.00027459719053630804
-0.2050500959 -0.1003156006 -0.00016711070031535865 -0.00026311085096162283
-0.1997286379 -0.1003156006 -0.0001657477267889177 -0.0002504571356204879
-0.19440718 -0.1003156006 -0.00016437259885845583 -0.0002377773644852768
-0.189085722 -0.1003156006 -0.00016339500911584481 -0.0002261475936526546
-0.183764264 -0.1003156006 -0.00016276924317999047 -0.00021359004860189247
-0.178442806 -0.1003156006 -0.00016191658623875273 -0.00020124080802196844
-0.173121348 -0.1003156006 -0.0001637643615280178 -0.0001900880412108125
-0.16779989 -0.1003156006 -0.00016591153289877015 -0.00017886841616127286
-0.1624784321 -0.1003156006 -0.00016869231383957528 -0.00016741629196556464
-0.1571569741 -0.1003156006 -0.00017164731785453412 -0.0001575496739573061
-0.1518355161 -0.1003156006 -0.00017487603464184194 -0.00014780027678720293
-0.1465140581 -0.1003156006 -0.00017835896510716694 -0.0001380203021837652
-0.1411926001 -0.1003156006 -0.00018138266364509722 -0.0001291087344626211
-0.1358711421 -0.1003156006 -0.0001848071291253953 -0.0001214234236545071
-0.1305496842 -0.1003156006 -0.0001882319871086116 -0.000113737800386573
-0.1252282262 -0.1003156006 -0.00019183944639815606 -0.00010608014858210902
-0.1199067682 -0.1003156006 -0.00019522153712669624 -9.969061838743101e-05
-0.1145853102 -0.1003156006 -0.0001986339236431466 -9.330988826162232e-05
-0.1092638522 -0.1003156006 -0.00020211369866775177 -8.6946658934759e-05
-0.1039423943 -0.1003156006 -0.0002055061756520319 -8.084625938166486e-05
-0.09862093627 -0.1003156006 -0.00020852177374109694 -7.556970220007751e-05
-0.09329947084 -0.1003156006 -0.00021164785927123072 -7.039756064313975e-05
-0.08797801286 -0.1003156006 -0.00021477182726632987 -6.522552402823869e-05
-0.08265655488 -0.1003156006 -0.00021768364871414337 -6.01793758399986e-05
-0.0773350969 -0.1003156006 -0.0002202712129048332 -5.562060602163619e-05
-0.07201363891 -0.1003156006 -0.00022289541494778368 -5.1117898411564813e-05
-0.06669218093 -0.1003156006 -0.00022551983159116714 -4.6615181464352794e-05
-0.06137072667 -0.1003156006 -0.00022816716849162542 -4.2133629857374744e-05
-0.05604926869 -0.1003156006 -0.00023042919394116446 -3.796457745214957e-05
-0.05072781071 -0.1003156006 -0.00023272079572807735 -3.3734038761362e-05
-0.045406349 -0.1003156006 -0.00023501522156466485 -2.9518884503953974e-05
-0.04008489102 -0.1003156006 -0.00023734520914293742 -2.5341489484134144e-05
-0.03476343304 -0.1003156006 -0.00023950051187508116 -2.1263838189373946e-05
-0.02944197692 -0.1003156006 -0.00024161228891768566 -1.7251944952312783e-05
-0.02412051894 -0.1003156006 -0.00024373097995116492 -1.3242590845333972e-05
-0.01879905909 -0.1003156006 -0.0002458588373790349 -9.229150820251142e-06
-0.01347760204 -0.1003156006 -0.00024798141130199727 -5.226810502962258e-06
-0.00815614406 -0.1003156006 -0.00024990241286370176 -1.346345752875719e-06
-0.00283468538 -0.1003156006 -0.00025183285371882806 2.4908313865360106e-06
0.002486772602 -0.1003156006 -0.00025378034455007695 6.30540378748811e-06
0.007808230817 -0.1003156006 -0.0002557249464337031 1.0125545381340453e-05
0.0131296888 -0.1003156006 -0.00025766186927839375 1.3958222534200832e-05
0.01845114678 -0.1003156006 -0.00025944728915470246 1.7765855398772624e-05
0.02377260476 -0.1003156006 -0.0002612647848616271 2.1572747939957465e-05
0.02909406275 -0.1003156006 -0.00026307938102726025 2.539333767260297e-05
0.03441552073 -0.1003156006 -0.0002648973041598887 2.921391087322148e-05
0.03973697871 -0.1003156006 -0.0002667126462786795 3.3023553332256654e-05
0.04505843669 -0.1003156006 -0.00026849007784254364 3.6790978330705265e-05
0.05037989467 -0.1003156006 -0.0002703756098581951 4.051131507896339e-05
0.05570135266 -0.1003156006 -0.0002722757473258216 4.421336804712881e-05
0.06102281436 -0.1003156006 -0.00027417596560040116 4.793460439505743e-05
0.06634426862 -0.1003156006 -0.0002760678129072871 5.163850824534888e-05
0.0716657266 -0.1003156006 -0.0002779482146273657 5.535519332138549e-05
0.07698718458 -0.1003156006 -0.00027975367715602373 5.8919958072063466e-05
0.08230864257 -0.1003156006 -0.0002816097959392379 6.247470246757357e-05
0.08763010055 -0.1003156006 -0.0002834742116933815 6.600065577565652e-05
0.09295155853 -0.1003156006 -0.00028533279165660747 6.953437918906725e-05
0.09827301651 -0.1003156006 -0.00028719009622662074 7.308839905834604e-05
0.1035944745 -0.1003156006 -0.0002889793139567617 7.663904584119931e-05
0.1089159325 -0.1003156006 -0.0002907764152037756 8.018278420103268e-05
0.1142373979 -0.1003156006 -0.00029257266204533745 8.372643608778951e-05
0.1195588559 -0.1003156006 -0.00029437156916766545 8.724235634167297e-05
0.1248803139 -0.1003156006 -0.0002961686538963906 9.075392585807965e-05
0.1302017719 -0.1003156006 -0.00029796745015938845 9.429238728861322e-05
0.1355232298 -0.1003156006 -0.0002998377487583412 9.786189660264267e-05
0.1408446878 -0.1003156006 -0.00030182352960000887 0.00010142211760460008
0.1461661458 -0.1003156006 -0.0003038104113899591 0.00010498747352885993
0.1514876038 -0.1003156006 -0.0003057928626748541 0.00010855260907306665
0.1568090618 -0.1003156006 -0.0003077761372919758 0.00011211808821437837
0.1621305197 -0.1003156006 -0.0003097538924175185 0.00011568191291479551
0.1674519777 -0.1003156006 -0.00031186769224108305 0.000119133637776326
0.1727734357 -0.1003156006 -0.0003141130256939372 0.00012260550643069208
0.1780948937 -0.1003156006 -0.00031635912866023004 0.00012607696245446614
0.1834163517 -0.1003156006 -0.0003186031904160505 0.0001295486265416758
0.1887378097 -0.1003156006 -0.00032083435966178504 0.0001329879525022253
0.1940592676 -0.1003156006 -0.00032305569558840934 0.0001364341623139914
0.1993807256 -0.1003156006 -0.00032543746275783567 0.0001397530676397655
0.2047021836 -0.1003156006 -0.00032790817461456247 0.00014302112329918777
0.2100236416 -0.1003156006 -0.00033038290602727203 0.00014629010654200597
0.2153450996 -0.1003156006 -0.0003328101006463813 0.00014949821818965975
0.2206665576 -0.1003156006 -0.00033526470705130996 0.00015275754530418346
0.2259880155 -0.1003156006 -0.0003377199635737025 0.0001560153043185159
0.2313094735 -0.1003156006 -0.0003402823334483968 0.00015915972242413072
0.2366309315 -0.1003156006 -0.00034288321706097525 0.00016223012934117213
0.2419523895 -0.1003156006 -0.0003454827690487349 0.00016530987500383595
0.2472738475 -0.1003156006 -0.00034807796148465423 0.0001683895718054938
0.2525953054 -0.1003156006 -0.0003506667741559498 0.00017147450451002435
0.2579167783 -0.1003156006 -0.00035324350389383095 0.00017452986298036475
0.2632382214 -0.1003156006 -0.00035600035280649363 0.0001775024528456544
0.2685596943 -0.1003156006 -0.0003588181757701465 0.00018042769435027434
0.2738811374 -0.1003156006 -0.0003616487380557879 0.00018339056358027784
0.2792026103 -0.1003156006 -0.0003644717913581799 0.00018632284069760154
0.2845240533 -0.1003156006 -0.0003672856015002408 0.00018925002031475267
0.2898455262 -0.1003156006 -0.0003700949362978045 0.00019217713177472094
0.2951669693 -0.1003156006 -0.00037319373492327736 0.00019491150353469986
0.3004884422 -0.1003156006 -0.00037634165530776387 0.00019759052097053712
0.3058098853 -0.1003156006 -0.0003794651439506327 0.00020025070723868836
0.3111313581 -0.1003156006 -0.0003825893206368988 0.00020291097657848455
0.3164528012 -0.1003156006 -0.00038571237900101956 0.00020557153173814246
0.3217742741 -0.1003156006 -0.0003888200637475605 0.00020820237864715968
0.3270957172 -0.1003156006 -0.0003922112519947073 0.00021044535920054284
0.3324171901 -0.1003156006 -0.00039561531489953883 0.0002126911594421026
0.3377386332 -0.1003156006 -0.0003990240575528246 0.0002149370441134476
0.343060106 -0.1003156006 -0.00040243089956688534 0.00021718394608501
0.3483815491 -0.1003156006 -0.0004057875712683655 0.00021939636388926444
0.353703022 -0.1003156006 -0.0004091678437459683 0.00022149613491557747
0.3590244651 -0.1003156006 -0.00041262890135402024 0.0002232976637009938
0.364345938 -0.1003156006 -0.0004160890928943187 0.00022510241179194408
0.369667381 -0.1003156006 -0.00041950162865491347 0.0002268933231526081
0.3749888539 -0.1003156006 -0.0004229233697294042 0.0002286877250901163
0.380310297 -0.1003156006 -0.0004263589693173295 0.00023049092287445966
0.3856317699 -0.1003156006 -0.00042972474103224493 0.0002320801909295908
0.390953213 -0.1003156006 -0.00043305288582724225 0.00023359073251589927
0.3962746859 -0.1003156006 -0.0004363910179083484 0.00023511190392348652
0.4015961289 -0.1003156006 -0.0004397354331571424 0.00023663576947814577
0.4069176018 -0.1003156006 -0.0004431214810262194 0.0002381579807634125
0.4122390449 -0.1003156006 -0.0004464802581236102 0.0002396389213695409
0.4175605178 -0.1003156006 -0.0004498557840357591 0.0002410747830337196
0.4228819609 -0.1003156006 -0.00045323207840429274 0.00024252470172660742
0.4282034338 -0.1003156006 -0.0004566200081686121 0.0002439763733713952
0.4335248768 -0.1003156006 -0.00045998626995143296 0.0002453958788592034
0.4388463497 -0.1003156006 -0.00046343225112131065 0.00024680286015753516
0.4441677928 -0.1003156006 -0.00046705783252164743 0.0002481539395416795
0.4494892657 -0.1003156006 -0.00047068532304430966 0.00024948965660364795
0.4548107088 -0.1003156006 -0.0004743012410765214 0.0002507897402530664
0.4601321816 -0.1003156006 -0.00047792106524375513 0.00025211818458035145
0.4654536247 -0.1003156006 -0.00048168305097042054 0.0002533404229462419
0.4707750976 -0.1003156006 -0.0004856499855700983 0.0002543707899087681
0.4760965407 -0.1003156006 -0.0004895828057653065 0.00025537340190373646
0.4814180136 -0.1003156006 -0.000493514935645218 0.00025637645389566004
0.4867394567 -0.1003156006 -0.0004974400032259664 0.00025736803802078444
0.4920609295 -0.1003156006 -0.0005015929373630801 0.00025805236453917634
0.4973823726 -0.1003156006 -0.0005057628847933983 0.000258641417965785
0.5027038455 -0.1003156006 -0.0005099461154800081 0.0002592260375666935
0.5080252886 -0.1003156006 -0.0005141232948853642 0.0002598141164972858
0.5133467317 -0.1003156006 -0.0005182896283380985 0.00026013593389912724
0.5186682343 -0.1003156006 -0.0005226401102872649 0.0002602346796879122
0.5239896774 -0.1003156006 -0.0005269874534303516 0.00026033310397232767
0.5293111205 -0.1003156006 -0.0005313032488722336 0.00026041934253690315
0.5346325636 -0.1003156006 -0.0005355859869433644 0.0002602586029019148
0.5399540663 -0.1003156006 -0.0005400042393760161 0.00025979824146086405
0.5452755094 -0.1003156006 -0.0005444710517129385 0.00025934431875176473
0.5505969524 -0.1003156006 -0.000548840641760455 0.000258884242769382
0.5559183955 -0.1003156006 -0.0005531556860172643 0.0002580032674871717
0.5612398982 -0.1003156006 -0.0005576433354667505 0.0002569711887208696
0.5665613413 -0.1003156006 -0.0005620854593071119 0.0002559352182102533
0.5718827844 -0.1003156006 -0.0005663704103280199 0.000254708854387595
0.5772042274 -0.1003156006 -0.0005707465650653962 0.0002531007243433568
0.5825257301 -0.1003156006 -0.000575142804993542 0.0002514912084468701
0.5878471732 -0.1003156006 -0.000579375213860833 0.0002496749018769714
0.5931686163 -0.1003156006 -0.0005836288289620972 0.0002474957785546024
0.5984900594 -0.1003156006 -0.000587901019376757 0.00024538807750580264
0.6038115621 -0.1003156006 -0.0005920731403412042 0.00024280274882648652
0.6091330051 -0.1003156006 -0.0005961766866887301 0.00024014165536057205
0.6144544482 -0.1003156006 -0.0006003014127470384 0.00023713192981665026
0.6197758913 -0.1003156006 -0.0006042371936799397 0.0002338745624137546
0.625097394 -0.1003156006 -0.0006081003222326669 0.0002304026457099124
0.6304188371 -0.1003156006 -0.0006118307106280753 0.00022649623508874084
0.6357402802 -0.1003156006 -0.0006153019984099433 0.00022247915293855175
0.6410617828 -0.1003156006 -0.0006186824691099452 0.00021807281203334278
0.6463832259 -0.1003156006 -0.0006218636208741388 0.00021342594399076644
0.651704669 -0.1003156006 -0.0006249458223043652 0.00020855063636202365
0.6570261121 -0.1003156006 -0.0006275811346056725 0.00020333804661376893
0.6623476148 -0.1003156006 -0.0006300539048894028 0.00019779293669932696
0.6676690578 -0.1003156006 -0.0006323017975170031 0.00019197700084889801
0.6729905009 -0.1003156006 -0.000634081520440552 0.0001857230622191876
0.678311944 -0.1003156006 -0.0006355067797050011 0.00017928430352688642
0.6836334467 -0.1003156006 -0.0006366441423342255 0.00017250641673718014
0.6889548898 -0.1003156006 -0.0006373727156062767 0.00016525017363913332
0.6942763329 -0.1003156006 -0.0006375665617756001 0.00015770103728054142
0.6995977759 -0.1003156006 -0.0006372755021455955 0.00014984113554781725
0.7049192786 -0.1003156006 -0.0006365043304829464 0.0001416882146972158
0.7102407217 -0.1003156006 -0.0006351738816988459 0.00013317929942203071
0.7155621648 -0.1003156006 -0.000633011868626018 0.00012426048869977285
0.7208836079 -0.1003156006 -0.0006301083427377544 0.00011509807293825232
0.7262051105 -0.1003156006 -0.000626518817659384 0.00010559759432111519
0.7315265536 -0.1003156006 -0.0006219212397704515 9.573523086780643e-05
0.7368479967 -0.1003156006 -0.0006161000303745813 8.54688572139111e-05
0.7421694398 -0.1003156006 -0.0006092225363921379 7.486607015626121e-05
0.7474909425 -0.1003156006 -0.0006014751204287224 6.467433869863066e-05
0.7528123856 -0.1003156006 -0.0005919089425320708 5.3875791776858475e-05
0.7581338286 -0.1003156006 -0.0005809636226188634 4.2984108949284274e-05
-0.3008363545 -0.09699654579 -0.0003108381788041133 -0.00046635098058460606
-0.2955148816 -0.09699654579 -0.0002975853989975982 -0.00046154839668976095
-0.2901934385 -0.09699654579 -0.00028554023015333067 -0.0004564932472740221
-0.2848719656 -0.09699654579 -0.0002733852364996561 -0.00045017189384584914
-0.2795505226 -0.09699654579 -0.0002607879098822562 -0.0004425530614245303
-0.2742290497 -0.09699654579 -0.0002481986286490811 -0.00043434008399615825
-0.2689076066 -0.09699654579 -0.00023526481077923095 -0.00042442841425330833
-0.2635861337 -0.09699654579 -0.00022453010803753011 -0.00041403501762239875
-0.2582646906 -0.09699654579 -0.0002132576577232771 -0.00040233913163078026
-0.2529432178 -0.09699654579 -0.00020258896214542664 -0.0003889457624498792
-0.2476217598 -0.09699654579 -0.00019161016138962656 -0.0003740436048879102
-0.2423003018 -0.09699654579 -0.00018358992050892324 -0.00035961041661024067
-0.2369788438 -0.09699654579 -0.0001771136511107739 -0.00034512448197057064
-0.2316573858 -0.09699654579 -0.0001712924469260953 -0.00032981101849713314
-0.2263359278 -0.09699654579 -0.00016596399294676456 -0.0003137910769145352
-0.2210144699 -0.09699654579 -0.00016379612154199935 -0.00030143507883497963
-0.2156930119 -0.09699654579 -0.0001622490383975901 -0.00028897314772927465
-0.2103715539 -0.09699654579 -0.00016094033478081889 -0.0002759592546994716
-0.2050500959 -0.09699654579 -0.00016005222500933852 -0.0002639475693626431
-0.1997286379 -0.09699654579 -0.00015866033098129814 -0.0002512702680110336
-0.19440718 -0.09699654579 -0.0001574057035978009 -0.00023883566700740207
-0.189085722 -0.09699654579 -0.0001567163577238294 -0.00022680531658055196
-0.183764264 -0.09699654579 -0.00015542587871015298 -0.00021418366124958008
-0.178442806 -0.09699654579 -0.0001547980243341733 -0.0002012257972013741
-0.173121348 -0.09699654579 -0.00015635077107463836 -0.00018982376061496952
-0.16779989 -0.09699654579 -0.00015950254713136458 -0.00017835719385419317
-0.1624784321 -0.09699654579 -0.00016253629130818302 -0.00016626725055909374
-0.1571569741 -0.09699654579 -0.00016610427301491548 -0.00015561674769679957
-0.1518355161 -0.09699654579 -0.00016959568609638696 -0.0001456020016334992
-0.1465140581 -0.09699654579 -0.00017304454155130946 -0.00013565066131760467
-0.1411926001 -0.09699654579 -0.00017664403274634814 -0.00012666166007273584
-0.1358711421 -0.09699654579 -0.0001802858906152447 -0.00011900891447415574
-0.1305496842 -0.09699654579 -0.00018420805083527346 -0.00011146630718942024
-0.1252282262 -0.09699654579 -0.00018796570084738878 -0.00010392377546176976
-0.1199067682 -0.09699654579 -0.00019148216085835098 -9.744948079854226e-05
-0.1145853102 -0.09699654579 -0.00019507810401997114 -9.116818663879847e-05
-0.1092638522 -0.09699654579 -0.00019868114429705312 -8.484825081356401e-05
-0.1039423943 -0.09699654579 -0.0002023478009172338 -7.879590997703355e-05
-0.09862093627 -0.09699654579 -0.00020551018356847046 -7.36493996759887e-05
-0.09329947084 -0.09699654579 -0.00020868098141545882 -6.849579227454835e-05
-0.08797801286 -0.09699654579 -0.00021187562089580475 -6.336122408266736e-05
-0.08265655488 -0.09699654579 -0.00021493996131549038 -5.8381836974738644e-05
-0.0773350969 -0.09699654579 -0.0002175862219544799 -5.389689312366358e-05
-0.07201363891 -0.09699654579 -0.0002202872452984432 -4.948064130010844e-05
-0.06669218093 -0.09699654579 -0.00022296633948177283 -4.5074201474935716e-05
-0.06137072667 -0.09699654579 -0.00022563610968614873 -4.0634818682487936e-05
-0.05604926869 -0.09699654579 -0.00022792457586552487 -3.646189714199523e-05
-0.05072781071 -0.09699654579 -0.00023026446404243272 -3.229626814076291e-05
-0.045406349 -0.09699654579 -0.00023260529735643772 -2.8130501069111513e-05
-0.04008489102 -0.09699654579 -0.00023496064713726382 -2.3968279139079786e-05
-0.03476343304 -0.09699654579 -0.0002371604633480105 -1.992324522015311e-05
-0.02944197692 -0.09699654579 -0.0002393193244308536 -1.5941306868883015e-05
-0.02412051894 -0.09699654579 -0.00024146456851826715 -1.1937644857403938e-05
-0.01879905909 -0.09699654579 -0.00024362419420306483 -7.95717422352699e-06
-0.01347760204 -0.09699654579 -0.00024579145404203013 -3.986568475882396e-06
-0.00815614406 -0.09699654579 -0.00024774723638849394 -1.3190766350562887e-07
-0.00283468538 -0.09699654579 -0.0002496991242862491 3.677113512741741e-06
0.002486772602 -0.09699654579 -0.00025166025213062173 7.472332199227864e-06
0.007808230817 -0.09699654579 -0.0002536177200509261 1.1273281439107039e-05
0.0131296888 -0.09699654579 -0.00025557417921206126 1.5074936801694288e-05
0.01845114678 -0.09699654579 -0.00025737522328433856 1.8876698647092727e-05
0.02377260476 -0.09699654579 -0.0002591966899496706 2.270261442325692e-05
0.02909406275 -0.09699654579 -0.00026102359283735796 2.651595370088253e-05
0.03441552073 -0.09699654579 -0.00026284639072248725 3.0334569347220334e-05
0.03973697871 -0.09699654579 -0.0002646700523458117 3.415674562134891e-05
0.04505843669 -0.09699654579 -0.00026646786982248026 3.793052123113907e-05
0.05037989467 -0.09699654579 -0.00026839302661105745 4.1656472375982963e-05
0.05570135266 -0.09699654579 -0.0002703215967820172 4.5362458814766416e-05
0.06102281436 -0.09699654579 -0.0002722575967190422 4.9073819627788724e-05
0.06634426862 -0.09699654579 -0.0002741805216179191 5.279583424979071e-05
0.0716657266 -0.09699654579 -0.0002761002159252732 5.651796345435192e-05
0.07698718458 -0.09699654579 -0.0002779326346333541 6.007060126581718e-05
0.08230864257 -0.09699654579 -0.000279819274755007 6.361360974947605e-05
0.08763010055 -0.09699654579 -0.00028168971660858866 6.712162798940892e-05
0.09295155853 -0.09699654579 -0.00028357721287812536 7.06571518032997e-05
0.09827301651 -0.09699654579 -0.0002854596422334112 7.419904206624422e-05
0.1035944745 -0.09699654579 -0.00028726422135034546 7.774752207797575e-05
0.1089159325 -0.09699654579 -0.0002890622529352943 8.130509589916347e-05
0.1142373979 -0.09699654579 -0.00029086386536266205 8.48381240366295e-05
0.1195588559 -0.09699654579 -0.0002926685818635037 8.838515415501276e-05
0.1248803139 -0.09699654579 -0.00029447500493100373 9.193212511261909e-05
0.1302017719 -0.09699654579 -0.00029627460821098984 9.545582200199368e-05
0.1355232298 -0.09699654579 -0.00029817596869901746 9.904991993035504e-05
0.1408446878 -0.09699654579 -0.0003001776438381746 0.00010262639590187288
0.1461661458 -0.09699654579 -0.0003021774857522086 0.00010622137600583917
0.1514876038 -0.09699654579 -0.0003041671834192817 0.00010982076274667303
0.1568090618 -0.09699654579 -0.00030615955016725493 0.00011341849041110539
0.1621305197 -0.09699654579 -0.00030814871569144416 0.00011698057201592456
0.1674519777 -0.09699654579 -0.0003103207077795256 0.00012049469265205583
0.1727734357 -0.09699654579 -0.00031259250658381655 0.0001239587002622151
0.1780948937 -0.09699654579 -0.0003148874646912414 0.00012745420731148722
0.1834163517 -0.09699654579 -0.00031716942421109275 0.000130923899091647
0.1887378097 -0.09699654579 -0.0003194415032671821 0.00013440090117221263
0.1940592676 -0.09699654579 -0.00032171206901733215 0.0001378779066166765
0.1993807256 -0.09699654579 -0.00032415278041894434 0.00014121456441106784
0.2047021836 -0.09699654579 -0.00032667552629171947 0.00014450381519618907
0.2100236416 -0.09699654579 -0.00032916961271797627 0.0001477592561337369
0.2153450996 -0.09699654579 -0.0003316705795470175 0.00015103287934864796
0.2206665576 -0.09699654579 -0.0003341730424123959 0.00015430632183357392
0.2259880155 -0.09699654579 -0.0003366572409369265 0.00015755495863840226
0.2313094735 -0.09699654579 -0.0003392444835687863 0.00016069557592909777
0.2366309315 -0.09699654579 -0.00034186871368348286 0.00016380840814257598
0.2419523895 -0.09699654579 -0.0003444930611365438 0.00016692109195271646
0.2472738475 -0.09699654579 -0.000347117874521511 0.00017003356687495647
0.2525953054 -0.09699654579 -0.0003497278727720484 0.00017311568912433417
0.2579167783 -0.09699654579 -0.00035233523453512207 0.00017620469986148464
0.2632382214 -0.09699654579 -0.00035513254067413055 0.00017921088641573846
0.2685596943 -0.09699654579 -0.00035799463573401566 0.0001821970743307243
0.2738811374 -0.09699654579 -0.0003608374911054999 0.00018515090682406641
0.2792026103 -0.09699654579 -0.000363674895605328 0.00018810370283095805
0.2845240533 -0.09699654579 -0.0003665069276801589 0.00019103514714441708
0.2898455262 -0.09699654579 -0.00036935105033477283 0.0001940037111127334
0.2951669693 -0.09699654579 -0.00037249128319291467 0.00019674376786032438
0.3004884422 -0.09699654579 -0.0003756596928418078 0.00019945525925291655
0.3058098853 -0.09699654579 -0.00037883271677591353 0.00020216884064756652
0.3111313581 -0.09699654579 -0.00038201034824076745 0.000204882535337857
0.3164528012 -0.09699654579 -0.0003851629796141187 0.00020756631370436005
0.3217742741 -0.09699654579 -0.00038830654818006383 0.00021022283356196558
0.3270957172 -0.09699654579 -0.0003917306537742848 0.00021249306438950747
0.3324171901 -0.09699654579 -0.0003951565965741836 0.00021476275517825965
0.3377386332 -0.09699654579 -0.0003985459847245388 0.00021700435147706235
0.343060106 -0.09699654579 -0.000401935338393499 0.00021925243929142354
0.3483815491 -0.09699654579 -0.00040532973512965686 0.000221507524164383
0.353703022 -0.09699654579 -0.0004087463491652536 0.00022361007224122747
0.3590244651 -0.09699654579 -0.0004122039219229234 0.0002253977006068767
0.364345938 -0.09699654579 -0.00041564182342574666 0.0002271977815864939
0.369667381 -0.09699654579 -0.00041908207295721084 0.00022899671981933925
0.3749888539 -0.09699654579 -0.0004225506382993739 0.0002307996098340503
0.380310297 -0.09699654579 -0.0004260041659170151 0.00023259205523248146
0.3856317699 -0.09699654579 -0.00042936284317366785 0.00023416659369843436
0.390953213 -0.09699654579 -0.0004327037775087228 0.00023566487694869157
0.3962746859 -0.09699654579 -0.00043605274217404567 0.00023717159745996353
0.4015961289 -0.09699654579 -0.00043939323833720197 0.00023867619256324275
0.4069176018 -0.09699654579 -0.0004427308705726369 0.00024019270307627794
0.4122390449 -0.09699654579 -0.0004460584910991444 0.00024169153381047639
0.4175605178 -0.09699654579 -0.00044937793954598695 0.00024316732261120636
0.4228819609 -0.09699654579 -0.0004527042398644776 0.00024462024464835434
0.4282034338 -0.09699654579 -0.00045604035562918783 0.00024607410858136226
0.4335248768 -0.09699654579 -0.0004593624751823916 0.0002475156277762147
0.4388463497 -0.09699654579 -0.0004627828915041765 0.0002489769909519154
0.4441677928 -0.09699654579 -0.0004663886216108527 0.00025035188817664855
0.4494892657 -0.09699654579 -0.00047000177819552896 0.00025173718269285946
0.4548107088 -0.09699654579 -0.0004736442762143474 0.00025311708133709095
0.4601321816 -0.09699654579 -0.00047728186223412294 0.0002544812785792477
0.4654536247 -0.09699654579 -0.00048105095834079367 0.0002556971190573072
0.4707750976 -0.09699654579 -0.0004850422138779072 0.00025675013042979016
0.4760965407 -0.09699654579 -0.0004890628245651559 0.00025783696589986124
0.4814180136 -0.09699654579 -0.0004930584245670063 0.0002588932744172049
0.4867394567 -0.09699654579 -0.0004970257245864056 0.00025992744707977936
0.4920609295 -0.09699654579 -0.0005012141343214611 0.00026063372494249945
0.4973823726 -0.09699654579 -0.000505466215208704 0.0002612538617852299
0.5027038455 -0.09699654579 -0.0005096802154713722 0.00026184105918868565
0.5080252886 -0.09699654579 -0.000513905095342836 0.00026244731920097795
0.5133467317 -0.09699654579 -0.0005182249924743312 0.0002628316364793931
0.5186682343 -0.09699654579 -0.0005226440531658713 0.0002629441392654981
0.5239896774 -0.09699654579 -0.0005269872110801287 0.0002630356766483003
0.5293111205 -0.09699654579 -0.0005313696202091356 0.00026313379285473627
0.5346325636 -0.09699654579 -0.0005358525333597805 0.0002630090135296314
0.5399540663 -0.09699654579 -0.0005403544046197952 0.0002625506959528212
0.5452755094 -0.09699654579 -0.0005448205371655665 0.00026209202364239594
0.5505969524 -0.09699654579 -0.000549323379590567 0.000261632348740654
0.5559183955 -0.09699654579 -0.0005538936279560194 0.00026074718339732036
0.5612398982 -0.09699654579 -0.0005583701578690683 0.00025971409620320895
0.5665613413 -0.09699654579 -0.0005628327602204245 0.00025866788802408056
0.5718827844 -0.09699654579 -0.0005674301598260391 0.000257413811506012
0.5772042274 -0.09699654579 -0.0005718619316411696 0.000255806434284485
0.5825257301 -0.09699654579 -0.0005762895734334658 0.00025419846867223077
0.5878471732 -0.09699654579 -0.0005807971424696544 0.0002523612511623873
0.5931686163 -0.09699654579 -0.0005851265585728917 0.0002501968593167546
0.5984900594 -0.09699654579 -0.0005895295030116307 0.00024798808976957224
0.6038115621 -0.09699654579 -0.0005938182779649361 0.0002454157739858808
0.6091330051 -0.09699654579 -0.0005981052378488037 0.00024259197037081878
0.6144544482 -0.09699654579 -0.0006022870717564197 0.00023965641457366737
0.6197758913 -0.09699654579 -0.0006063960493630557 0.00023622630281812967
0.625097394 -0.09699654579 -0.0006104140904217868 0.00023271610386420397
0.6304188371 -0.09699654579 -0.0006142568135478304 0.00022875316261065053
0.6357402802 -0.09699654579 -0.0006181192008181031 0.00022459212263695159
0.6410617828 -0.09699654579 -0.0006216272098238594 0.00022020816841409542
0.6463832259 -0.09699654579 -0.0006250400274868666 0.00021540944431144073
0.651704669 -0.09699654579 -0.0006282678471624445 0.00021035822644347251
0.6570261121 -0.09699654579 -0.000631091371586212 0.00020490980397186884
0.6623476148 -0.09699654579 -0.0006337020346349591 0.00019923605769492074
0.6676690578 -0.09699654579 -0.0006361209266231828 0.00019317008012841098
0.6729905009 -0.09699654579 -0.0006381472129459879 0.00018681115979033003
0.678311944 -0.09699654579 -0.0006399242893102625 0.000180075114690862
0.6836334467 -0.09699654579 -0.0006413588722471984 0.00017308156450973063
0.6889548898 -0.09699654579 -0.0006422397288516544 0.0001656978420697162
0.6942763329 -0.09699654579 -0.0006426565181636828 0.00015788090797213254
0.6995977759 -0.09699654579 -0.0006427303753272462 0.00014964970828409572
0.7049192786 -0.09699654579 -0.0006421866051478646 0.0001411490644129336
0.7102407217 -0.09699654579 -0.0006409870857296758 0.0001322366960257718
0.7155621648 -0.09699654579 -0.0006389810894324602 0.00012283922200403855
0.7208836079 -0.09699654579 -0.0006363541669304279 0.00011300531764962814
0.7262051105 -0.09699654579 -0.0006328457903600531 0.00010282045282072415
0.7315265536 -0.09699654579 -0.0006284933871492706 9.253299727660662e-05
0.7368479967 -0.09699654579 -0.0006231248256180874 8.160167140138462e-05
0.7421694398 -0.09699654579 -0.0006163324800043707 7.046426464274707e-05
0.7474909425 -0.09699654579 -0.0006085956579062719 5.8960502085281396e-05
0.7528123856 -0.09699654579 -0.0005992141506364583 4.739426357524188e-05
0.7581338286 -0.09699654579 -0.0005881692833553895 3.577927452135704e-05
-0.3008363545 -0.09367749095 -0.0003085297658371686 -0.0004739302878714143
-0.2955148816 -0.09367749095 -0.00029466788309643813 -0.0004698801973195366
-0.2901934385 -0.09367749095 -0.000280037867235222 -0.00046428018298531296
-0.2848719656 -0.09367749095 -0.00026842621608303097 -0.0004580827344758501