VARIABLES = X,Y,phix,phiy
ZONE I=200,J=200,F=POINT 
-0.3008363545 -0.1003156006 3.904744348461535e-05 -0.00019220625581731595
-0.2955148816 -0.1003156006 4.800248539304839e-05 -0.00020387740368800464
-0.2901934385 -0.1003156006 5.7190822897900896e-05 -0.00021340054543583827
-0.2848719656 -0.1003156006 6.712068663781014e-05 -0.00022303101455220485
-0.2795505226 -0.1003156006 7.902177108109348e-05 -0.00023187168214592284
-0.2742290497 -0.1003156006 9.25430804330777e-05 -0.00023931366179398295
-0.2689076066 -0.1003156006 0.00010742291598353001 -0.00024674494082324263
-0.2635861337 -0.1003156006 0.00011987676332090242 -0.0002505071896457095
-0.2582646906 -0.1003156006 0.00013291594478256896 -0.0002514675672221456
-0.2529432178 -0.1003156006 0.00014645570306253403 -0.00025108097591537736
-0.2476217598 -0.1003156006 0.00016064288964739588 -0.0002494890545666495
-0.2423003018 -0.1003156006 0.0001734712107671305 -0.00024543843639077145
-0.2369788438 -0.1003156006 0.00018593389801929255 -0.0002399534364033311
-0.2316573858 -0.1003156006 0.00019924125621236186 -0.0002334930049623818
-0.2263359278 -0.1003156006 0.00021170246129687676 -0.00022603126438277085
-0.2210144699 -0.1003156006 0.0002193036631925604 -0.0002179326170939178
-0.2156930119 -0.1003156006 0.00022690304752814438 -0.00020903664466066262
-0.2103715539 -0.1003156006 0.00023392804859511554 -0.0001987918711783643
-0.2050500959 -0.1003156006 0.0002375968116593219 -0.0001892767472651032
-0.1997286379 -0.1003156006 0.00024120302985073514 -0.00017926347272254617
-0.19440718 -0.1003156006 0.00024420624901632797 -0.00016815201709461609
-0.189085722 -0.1003156006 0.0002448441627537545 -0.00015981675460771146
-0.183764264 -0.1003156006 0.0002449442279162178 -0.00015159122346578417
-0.178442806 -0.1003156006 0.00024500104022565105 -0.0001433349083612975
-0.173121348 -0.1003156006 0.0002436231318239748 -0.0001364507791652789
-0.16779989 -0.1003156006 0.0002420866983847561 -0.0001299907417825135
-0.1624784321 -0.1003156006 0.00024051900888060775 -0.0001234212338172521
-0.1571569741 -0.1003156006 0.00023847593011790596 -0.00011768934223718757
-0.1518355161 -0.1003156006 0.00023588035139112944 -0.00011228934257143309
-0.1465140581 -0.1003156006 0.0002331669010040885 -0.00010684297975258374
-0.1411926001 -0.1003156006 0.0002303234967491169 -0.00010166402829981646
-0.1358711421 -0.1003156006 0.00022728558384894486 -9.708213451750249e-05
-0.1305496842 -0.1003156006 0.00022424678865704572 -9.249987214260009e-05
-0.1252282262 -0.1003156006 0.00022102592049817575 -8.788190048345312e-05
-0.1199067682 -0.1003156006 0.0002176074863232624 -8.415315145733378e-05
-0.1145853102 -0.1003156006 0.0002141400918464406 -8.06454710134922e-05
-0.1092638522 -0.1003156006 0.00021059354053134619 -7.713062444383327e-05
-0.1039423943 -0.1003156006 0.00020707315536299794 -7.367060589424838e-05
-0.09862093627 -0.1003156006 0.00020355572610881894 -7.112451186784354e-05
-0.09329947084 -0.1003156006 0.0001999776920733891 -6.858156899565243e-05
-0.08797801286 -0.1003156006 0.00019640201970994104 -6.603831033321324e-05
-0.08265655488 -0.1003156006 0.00019279342333262424 -6.353547936142372e-05
-0.0773350969 -0.1003156006 0.00018919413936224928 -6.161931697452968e-05
-0.07201363891 -0.1003156006 0.00018559614387806384 -5.9704249464278766e-05
-0.06669218093 -0.1003156006 0.00018199924431419612 -5.778910209997942e-05
-0.06137072667 -0.1003156006 0.00017834779053502536 -5.587205010901199e-05
-0.05604926869 -0.1003156006 0.00017467870308503718 -5.432997832672133e-05
-0.05072781071 -0.1003156006 0.00017101518920185132 -5.286716063549031e-05
-0.045406349 -0.1003156006 0.0001673677861548063 -5.140521961749677e-05
-0.04008489102 -0.1003156006 0.00016368053049118747 -4.994263666060182e-05
-0.03476343304 -0.1003156006 0.00016000832204746425 -4.862971502537918e-05
-0.02944197692 -0.1003156006 0.0001563613956805585 -4.763049085165018e-05
-0.02412051894 -0.1003156006 0.00015270296349573255 -4.6635245268991454e-05
-0.01879905909 -0.1003156006 0.00014903616885686427 -4.5645133951114484e-05
-0.01347760204 -0.1003156006 0.00014538249966558628 -4.464952738645431e-05
-0.00815614406 -0.1003156006 0.00014184513168129245 -4.392224173776712e-05
-0.00283468538 -0.1003156006 0.00013840177141122387 -4.339931762382193e-05
0.002486772602 -0.1003156006 0.00013493869428434025 -4.289075381994082e-05
0.007808230817 -0.1003156006 0.00013147518216743287 -4.238227251069948e-05
0.0131296888 -0.1003156006 0.00012802707307325837 -4.1861705329564365e-05
0.01845114678 -0.1003156006 0.0001246549989650026 -4.1506045585101285e-05
0.02377260476 -0.1003156006 0.00012133105144259016 -4.127239956469543e-05
0.02909406275 -0.1003156006 0.00011799527359822586 -4.104231431192696e-05
0.03441552073 -0.1003156006 0.00011465861307917288 -4.081228038955295e-05
0.03973697871 -0.1003156006 0.00011133347763209524 -4.057911478129655e-05
0.04505843669 -0.1003156006 0.00010804150899637443 -4.042639446207209e-05
0.05037989467 -0.1003156006 0.00010477370347399841 -4.043270140817788e-05
0.05570135266 -0.1003156006 0.00010149110452614774 -4.044514504781795e-05
0.06102281436 -0.1003156006 9.820606979204828e-05 -4.045756856010589e-05
0.06634426862 -0.1003156006 9.493532506270809e-05 -4.046606734208966e-05
0.0716657266 -0.1003156006 9.166868738152699e-05 -4.0471429844300507e-05
0.07698718458 -0.1003156006 8.859466399665096e-05 -4.067742391123111e-05
0.08230864257 -0.1003156006 8.553402624060699e-05 -4.089829998973695e-05
0.08763010055 -0.1003156006 8.246799450007095e-05 -4.1127363452767294e-05
0.09295155853 -0.1003156006 7.940402277951595e-05 -4.134918150423899e-05
0.09827301651 -0.1003156006 7.634603490948705e-05 -4.1566148151134245e-05
0.1035944745 -0.1003156006 7.33362997785295e-05 -4.1785544265277284e-05
0.1089159325 -0.1003156006 7.042104730300981e-05 -4.20174152163838e-05
0.1142373979 -0.1003156006 6.750631468398123e-05 -4.2249377192363764e-05
0.1195588559 -0.1003156006 6.459021699509038e-05 -4.247468141893819e-05
0.1248803139 -0.1003156006 6.167509456141006e-05 -4.270293309875574e-05
0.1302017719 -0.1003156006 5.875568273722627e-05 -4.293210316818527e-05
0.1355232298 -0.1003156006 5.581702236155478e-05 -4.320481443848739e-05
0.1408446878 -0.1003156006 5.286010940522133e-05 -4.3511293750984655e-05
0.1461661458 -0.1003156006 4.991377490061695e-05 -4.3816300346199485e-05
0.1514876038 -0.1003156006 4.696655304463032e-05 -4.4121564375359916e-05
0.1568090618 -0.1003156006 4.401521756707804e-05 -4.442671391359433e-05
0.1621305197 -0.1003156006 4.1050901744274284e-05 -4.4732969113670014e-05
0.1674519777 -0.1003156006 3.812582160261908e-05 -4.516643714403278e-05
0.1727734357 -0.1003156006 3.5223678013029385e-05 -4.565431348909235e-05
0.1780948937 -0.1003156006 3.232046595250329e-05 -4.614243073453923e-05
0.1834163517 -0.1003156006 2.9416866165246417e-05 -4.6630175718978626e-05
0.1887378097 -0.1003156006 2.651524317655859e-05 -4.711276896476852e-05
0.1940592676 -0.1003156006 2.3616268546717126e-05 -4.7579988803744606e-05
0.1993807256 -0.1003156006 2.0916855512523803e-05 -4.809265200094998e-05
0.2047021836 -0.1003156006 1.8272835693523467e-05 -4.8621974887321946e-05
0.2100236416 -0.1003156006 1.5630038715579446e-05 -4.9145008633686835e-05
0.2153450996 -0.1003156006 1.2980997210786756e-05 -4.9664481035990836e-05
0.2206665576 -0.1003156006 1.033228352227144e-05 -5.018329067314733e-05
0.2259880155 -0.1003156006 7.680160467603026e-06 -5.0700243967294635e-05
0.2313094735 -0.1003156006 5.1551881047830305e-06 -5.1084948412077376e-05
0.2366309315 -0.1003156006 2.6458237642336133e-06 -5.1437763246590376e-05
0.2419523895 -0.1003156006 1.258825896992085e-07 -5.1787563730614006e-05
0.2472738475 -0.1003156006 -2.392486042749366e-06 -5.213754201557511e-05
0.2525953054 -0.1003156006 -4.9144069353737755e-06 -5.2491681442736504e-05
0.2579167783 -0.1003156006 -7.445751787048222e-06 -5.28438792160853e-05
0.2632382214 -0.1003156006 -1.000418463006152e-05 -5.3076068393722134e-05
0.2685596943 -0.1003156006 -1.2572733627608706e-05 -5.3281283333694695e-05
0.2738811374 -0.1003156006 -1.5132092602404005e-05 -5.3494847441596504e-05
0.2792026103 -0.1003156006 -1.769527892020002e-05 -5.370591124272541e-05
0.2845240533 -0.1003156006 -2.0271323578476465e-05 -5.391481769114259e-05
0.2898455262 -0.1003156006 -2.284299374982166e-05 -5.412403875280373e-05
0.2951669693 -0.1003156006 -2.5425624062701924e-05 -5.429948450980972e-05
0.3004884422 -0.1003156006 -2.801421869826139e-05 -5.4477968117444826e-05
0.3058098853 -0.1003156006 -3.060222318977632e-05 -5.464935233323086e-05
0.3111313581 -0.1003156006 -3.3199769632885964e-05 -5.482030762978248e-05
0.3164528012 -0.1003156006 -3.5790020160853355e-05 -5.499146176107634e-05
0.3217742741 -0.1003156006 -3.835950105704674e-05 -5.5165300363700706e-05
0.3270957172 -0.1003156006 -4.086104351201188e-05 -5.524278017441657e-05
0.3324171901 -0.1003156006 -4.336736107247368e-05 -5.531761442410299e-05
0.3377386332 -0.1003156006 -4.587219684868051e-05 -5.5393039753722995e-05
0.343060106 -0.1003156006 -4.837459306064625e-05 -5.5472702467591955e-05
0.3483815491 -0.1003156006 -5.088998758962543e-05 -5.5543821901458533e-05
0.353703022 -0.1003156006 -5.3396813877254526e-05 -5.557000177316859e-05
0.3590244651 -0.1003156006 -5.5899519505460726e-05 -5.550907685256603e-05
0.364345938 -0.1003156006 -5.8403442164946445e-05 -5.54508527306825e-05
0.369667381 -0.1003156006 -6.090567250821513e-05 -5.5401256819649565e-05
0.3749888539 -0.1003156006 -6.340677362814016e-05 -5.535512701241445e-05
0.380310297 -0.1003156006 -6.591139053339643e-05 -5.529740437713063e-05
0.3856317699 -0.1003156006 -6.845263036728494e-05 -5.519731615212574e-05
0.390953213 -0.1003156006 -7.100207948583496e-05 -5.508996960893834e-05
0.3962746859 -0.1003156006 -7.354931935566623e-05 -5.497569338126066e-05
0.4015961289 -0.1003156006 -7.60679985892611e-05 -5.485604792154023e-05
0.4069176018 -0.1003156006 -7.858015407755549e-05 -5.474042975620497e-05
0.4122390449 -0.1003156006 -8.103721167228651e-05 -5.4645594917669106e-05
0.4175605178 -0.1003156006 -8.34503115417448e-05 -5.460414486790022e-05
0.4228819609 -0.1003156006 -8.58874910690845e-05 -5.455946854516619e-05
0.4282034338 -0.1003156006 -8.831110775703949e-05 -5.4526350958020627e-05
0.4335248768 -0.1003156006 -9.073080102828761e-05 -5.4448807987128163e-05
0.4388463497 -0.1003156006 -9.305314516544368e-05 -5.4368130459036943e-05
0.4441677928 -0.1003156006 -9.513176658174419e-05 -5.43136708645447e-05
0.4494892657 -0.1003156006 -9.719455345603009e-05 -5.426097242197658e-05
0.4548107088 -0.1003156006 -9.926300890907042e-05 -5.4164227687350424e-05
0.4601321816 -0.1003156006 -0.0001013474936547407 -5.4080883706408415e-05
0.4654536247 -0.1003156006 -0.00010322517178649955 -5.3904833151186073e-05
0.4707750976 -0.1003156006 -0.00010480137598830359 -5.359426155610427e-05
0.4760965407 -0.1003156006 -0.0001064351312293393 -5.32211116715925e-05
0.4814180136 -0.1003156006 -0.00010806456661474457 -5.284805307831595e-05
0.4867394567 -0.1003156006 -0.00010968815864083639 -5.248230136245387e-05
0.4920609295 -0.1003156006 -0.00011092124722123993 -5.1845697540778775e-05
0.4973823726 -0.1003156006 -0.00011211554973173009 -5.107728414318029e-05
0.5027038455 -0.1003156006 -0.00011332267764974735 -5.0322977539414667e-05
0.5080252886 -0.1003156006 -0.00011452073022037415 -4.957686173646394e-05
0.5133467317 -0.1003156006 -0.00011557869378535262 -4.853518281975673e-05
0.5186682343 -0.1003156006 -0.00011629314023142656 -4.732538345090935e-05
0.5239896774 -0.1003156006 -0.00011703924677612197 -4.610595354186325e-05
0.5293111205 -0.1003156006 -0.00011778329080450017 -4.487424881364967e-05
0.5346325636 -0.1003156006 -0.00011840821881373781 -4.328557518229887e-05
0.5399540663 -0.1003156006 -0.00011861212195505804 -4.1450309993279755e-05
0.5452755094 -0.1003156006 -0.0001188003912080022 -3.9634862753728424e-05
0.5505969524 -0.1003156006 -0.00011906249629619939 -3.7763759125436805e-05
0.5559183955 -0.1003156006 -0.00011901750959542542 -3.525102233236666e-05
0.5612398982 -0.1003156006 -0.0001185816833720293 -3.2666791047672125e-05
0.5665613413 -0.1003156006 -0.00011818439136999601 -3.006838374372913e-05
0.5718827844 -0.1003156006 -0.00011781881957914967 -2.6961559185633895e-05
0.5772042274 -0.1003156006 -0.00011683307178556564 -2.3380320395740554e-05
0.5825257301 -0.1003156006 -0.00011585581782482377 -1.98059017189701e-05
0.5878471732 -0.1003156006 -0.00011477374412775726 -1.5670237926152634e-05
0.5931686163 -0.1003156006 -0.00011332377547961116 -1.0934944383111526e-05
0.5984900594 -0.1003156006 -0.00011182812687174915 -6.3207345281186805e-06
0.6038115621 -0.1003156006 -0.0001098289292812851 -6.600924586889414e-07
0.6091330051 -0.1003156006 -0.0001079077538915196 5.264652003719648e-06
0.6144544482 -0.1003156006 -0.00010551338982245653 1.1839124365080672e-05
0.6197758913 -0.1003156006 -0.00010301599813708086 1.9215027952158527e-05
0.625097394 -0.1003156006 -0.00010047998920722653 2.712610026888267e-05
0.6304188371 -0.1003156006 -9.750684305228548e-05 3.621134346178676e-05
0.6357402802 -0.1003156006 -9.479773801579562e-05 4.5965243251585e-05
0.6410617828 -0.1003156006 -9.174553090639218e-05 5.654890888187424e-05
0.6463832259 -0.1003156006 -8.855009753176719e-05 6.820576920118269e-05
0.651704669 -0.1003156006 -8.529023419434311e-05 8.056283997450769e-05
0.6570261121 -0.1003156006 -8.243122323305506e-05 9.457142798319763e-05
0.6623476148 -0.1003156006 -7.96273007486683e-05 0.00010965545125197229
0.6676690578 -0.1003156006 -7.675603732601475e-05 0.00012593832633366248
0.6729905009 -0.1003156006 -7.455453222378835e-05 0.00014420220649234312
0.678311944 -0.1003156006 -7.294317879018208e-05 0.00016359523424086972
0.6836334467 -0.1003156006 -7.16450694341908e-05 0.0001844382917556054
0.6889548898 -0.1003156006 -7.116626638358329e-05 0.0002070992816940258
0.6942763329 -0.1003156006 -7.176278268578396e-05 0.00023157415087555374
0.6995977759 -0.1003156006 -7.321682480287496e-05 0.00025752606713953704
0.7049192786 -0.1003156006 -7.597538759189611e-05 0.00028519601627223674
0.7102407217 -0.1003156006 -8.039412439484264e-05 0.00031454802781362873
0.7155621648 -0.1003156006 -8.672901631941267e-05 0.0003458709751772893
0.7208836079 -0.1003156006 -9.513689050961606e-05 0.0003785210476242847
0.7262051105 -0.1003156006 -0.000105733712067451 0.00041252195005106945
0.7315265536 -0.1003156006 -0.00011871787869655532 0.0004480744506560205
0.7368479967 -0.1003156006 -0.0001355914743048576 0.0004852123466798831
0.7421694398 -0.1003156006 -0.0001549607047198482 0.00052362568068102
0.7474909425 -0.1003156006 -0.00017737260682617044 0.0005615144193126474
0.7528123856 -0.1003156006 -0.0002034115183922048 0.0006003098173601743
0.7581338286 -0.1003156006 -0.00023340436747840664 0.0006393594668838073
-0.3008363545 -0.09699654579 3.1055387895003105e-05 -0.00019626600974774204
-0.2955148816 -0.09699654579 4.033902073580327e-05 -0.0002093583374381119
-0.2901934385 -0.09699654579 5.1211555543067876e-05 -0.00022064977253142192
-0.2848719656 -0.09699654579 6.189471857642249e-05 -0.00022998878898293729
-0.2795505226 -0.09699654579 7.414339100702176e-05 -0.00023940406885987394
-0.2742290497 -0.09699654579 8.785734823862771e-05 -0.00024769123406627447
-0.2689076066 -0.09699654579 0.00010363188028274482 -0.00025458453578754213
-0.2635861337 -0.09699654579 0.00011916363503530022 -0.0002597781966449998
-0.2582646906 -0.09699654579 0.0001325290382577989 -0.0002615856147961523
-0.2529432178 -0.09699654579 0.0001466201351063407 -0.00026073641661355774
-0.2476217598 -0.09699654579 0.00016133558195907395 -0.0002577778225972876
-0.2423003018 -0.09699654579 0.00017557583371062403 -0.0002532896179508832
-0.2369788438 -0.09699654579 0.00018881474116089013 -0.00024763880662318773
-0.2316573858 -0.09699654579 0.00020217609494388846 -0.00024045624063289707
-0.2263359278 -0.09699654579 0.00021638015982746603 -0.0002321707999143677
-0.2210144699 -0.09699654579 0.0002248937446482826 -0.00022362120356246218
-0.2156930119 -0.09699654579 0.00023195818697573106 -0.00021346414601155827
-0.2103715539 -0.09699654579 0.00023913772035369827 -0.00020251671481578536
-0.2050500959 -0.09699654579 0.00024331536424110234 -0.00019192417283819894
-0.1997286379 -0.09699654579 0.0002462933863370613 -0.00018076306367160343
-0.19440718 -0.09699654579 0.00024922541844849943 -0.00016925256260934697
-0.189085722 -0.09699654579 0.0002496773585373611 -0.00015974604185592573
-0.183764264 -0.09699654579 0.00024963179791656815 -0.00015139897446295628
-0.178442806 -0.09699654579 0.0002491339144357391 -0.0001428474554678435
-0.173121348 -0.09699654579 0.00024788123640597713 -0.00013573667424833757
-0.16779989 -0.09699654579 0.00024627017737687527 -0.00012908710346157254
-0.1624784321 -0.09699654579 0.0002446376734947028 -0.00012225845959241527
-0.1571569741 -0.09699654579 0.0002423324407767803 -0.00011615376595681564
-0.1518355161 -0.09699654579 0.00023949903389458758 -0.00011059005257522919
-0.1465140581 -0.09699654579 0.0002365137684712158 -0.00010500775317840248
-0.1411926001 -0.09699654579 0.00023345860429543894 -9.969728884351314e-05
-0.1358711421 -0.09699654579 0.00023020140168838413 -9.507253040552895e-05
-0.1305496842 -0.09699654579 0.00022683276099176418 -9.042718366272864e-05
-0.1252282262 -0.09699654579 0.0002234607869240817 -8.575909577416345e-05
-0.1199067682 -0.09699654579 0.00021979345494610363 -8.196070260732874e-05
-0.1145853102 -0.09699654579 0.00021619428334293832 -7.841923123307027e-05
-0.1092638522 -0.09699654579 0.00021253341822886063 -7.489075049741935e-05
-0.1039423943 -0.09699654579 0.00020876175238633858 -7.140196935101298e-05
-0.09862093627 -0.09699654579 0.00020509941346438538 -6.885571536869214e-05
-0.09329947084 -0.09699654579 0.000201391541348854 -6.631189100594625e-05
-0.08797801286 -0.09699654579 0.00019764434438279994 -6.377072484956184e-05
-0.08265655488 -0.09699654579 0.0001939325218830379 -6.125737232298112e-05
-0.0773350969 -0.09699654579 0.00019026888482447582 -5.9339320334445e-05
-0.07201363891 -0.09699654579 0.00018656236568216603 -5.7421770753589476e-05
-0.06669218093 -0.09699654579 0.00018285363206263492 -5.550295228408688e-05
-0.06137072667 -0.09699654579 0.00017910539832237136 -5.3576292692755846e-05
-0.05604926869 -0.09699654579 0.00017530816358721105 -5.202462247761578e-05
-0.05072781071 -0.09699654579 0.00017154854405261255 -5.0556658597190397e-05
-0.045406349 -0.09699654579 0.00016779122122413976 -4.9088620031739095e-05
-0.04008489102 -0.09699654579 0.00016399681511464532 -4.762209191142749e-05
-0.03476343304 -0.09699654579 0.00016020235213752874 -4.631261738066278e-05
-0.02944197692 -0.09699654579 0.00015646948582804374 -4.5335409674502396e-05
-0.02412051894 -0.09699654579 0.00015274451369691146 -4.4355237361817164e-05
-0.01879905909 -0.09699654579 0.00014901110332998124 -4.33776720005199e-05
-0.01347760204 -0.09699654579 0.00014526651271054239 -4.240501249293041e-05
-0.00815614406 -0.09699654579 0.00014166310652743183 -4.1702678292925856e-05
-0.00283468538 -0.09699654579 0.00013816316234928556 -4.120512437749262e-05
0.002486772602 -0.09699654579 0.00013465625017327232 -4.071322769767863e-05
0.007808230817 -0.09699654579 0.0001311467730263297 -4.022197614313348e-05
0.0131296888 -0.09699654579 0.00012764196783665037 -3.972682554045939e-05
0.01845114678 -0.09699654579 0.00012422412049585573 -3.938986102834722e-05
0.02377260476 -0.09699654579 0.0001208645614161838 -3.916530535295051e-05
0.02909406275 -0.09699654579 0.00011749275505327345 -3.894478263575354e-05
0.03441552073 -0.09699654579 0.00011411739428358761 -3.8724627028534045e-05
0.03973697871 -0.09699654579 0.0001107595147843133 -3.850044167899513e-05
0.04505843669 -0.09699654579 0.00010743200867275975 -3.8363529781134244e-05
0.05037989467 -0.09699654579 0.00010413661173501061 -3.8386742886338255e-05
0.05570135266 -0.09699654579 0.00010083887948544594 -3.841284853020732e-05
0.06102281436 -0.09699654579 9.752981579012014e-05 -3.8443775628212215e-05
0.06634426862 -0.09699654579 9.42421919532803e-05 -3.8465487603944755e-05
0.0716657266 -0.09699654579 9.095037051293517e-05 -3.848714347412843e-05
0.07698718458 -0.09699654579 8.788635645485701e-05 -3.872161514040174e-05
0.08230864257 -0.09699654579 8.482840274974617e-05 -3.896753256409676e-05
0.08763010055 -0.09699654579 8.178154371870036e-05 -3.9210993105324544e-05
0.09295155853 -0.09699654579 7.872535581595994e-05 -3.945143442700434e-05
0.09827301651 -0.09699654579 7.568001845958928e-05 -3.969313588349666e-05
0.1035944745 -0.09699654579 7.268784263581e-05 -3.993253218198795e-05
0.1089159325 -0.09699654579 6.980835333895694e-05 -4.017514153795888e-05
0.1142373979 -0.09699654579 6.69323381165428e-05 -4.041373203132152e-05
0.1195588559 -0.09699654579 6.405681906282895e-05 -4.064848198634686e-05
0.1248803139 -0.09699654579 6.118480520461769e-05 -4.088344832134824e-05
0.1302017719 -0.09699654579 5.830816173406271e-05 -4.1121882965450966e-05
0.1355232298 -0.09699654579 5.539711515122148e-05 -4.139280502991606e-05
0.1408446878 -0.09699654579 5.249607818028779e-05 -4.170265123815922e-05
0.1461661458 -0.09699654579 4.9565762140936825e-05 -4.20065071786412e-05
0.1514876038 -0.09699654579 4.660046367560965e-05 -4.231128054329989e-05
0.1568090618 -0.09699654579 4.36353441738516e-05 -4.2616075047228916e-05
0.1621305197 -0.09699654579 4.0674441453672016e-05 -4.292303906676226e-05
0.1674519777 -0.09699654579 3.779054943048287e-05 -4.3366024376939464e-05
0.1727734357 -0.09699654579 3.4939874955543746e-05 -4.387409078913399e-05
0.1780948937 -0.09699654579 3.206349670868861e-05 -4.436859084989632e-05
0.1834163517 -0.09699654579 2.9204409420615747e-05 -4.487155938456685e-05
0.1887378097 -0.09699654579 2.634794250097565e-05 -4.53630668907696e-05
0.1940592676 -0.09699654579 2.3496412297888054e-05 -4.585482835844561e-05
0.1993807256 -0.09699654579 2.0882889142155777e-05 -4.639854512004803e-05
0.2047021836 -0.09699654579 1.8333161265211934e-05 -4.695989931692737e-05
0.2100236416 -0.09699654579 1.5766292601895165e-05 -4.7503667556690396e-05
0.2153450996 -0.09699654579 1.3199154773717494e-05 -4.8044634815669706e-05
0.2206665576 -0.09699654579 1.0632233705233421e-05 -4.858563140729644e-05
0.2259880155 -0.09699654579 8.074730257625323e-06 -4.913761692238282e-05
0.2313094735 -0.09699654579 5.58398200775839e-06 -4.9519025361455006e-05
0.2366309315 -0.09699654579 3.0995149771552244e-06 -4.986757843265797e-05
0.2419523895 -0.09699654579 6.12235200457788e-07 -5.0216122151068125e-05
0.2472738475 -0.09699654579 -1.8740226716430127e-06 -5.0564708558762566e-05
0.2525953054 -0.09699654579 -4.369571958456971e-06 -5.091691762985174e-05
0.2579167783 -0.09699654579 -6.878264642714277e-06 -5.126650658843758e-05
0.2632382214 -0.09699654579 -9.415446043167581e-06 -5.1490601826970634e-05
0.2685596943 -0.09699654579 -1.1967254497517518e-05 -5.169281366921782e-05
0.2738811374 -0.09699654579 -1.4519073357354692e-05 -5.19005371127379e-05
0.2792026103 -0.09699654579 -1.7078752647082585e-05 -5.210762199480394e-05
0.2845240533 -0.09699654579 -1.963355035152119e-05 -5.231845320179619e-05
0.2898455262 -0.09699654579 -2.219188255740584e-05 -5.252379455197292e-05
0.2951669693 -0.09699654579 -2.4764062228368616e-05 -5.2706165382557e-05
0.3004884422 -0.09699654579 -2.7350458004698272e-05 -5.288171064885607e-05
0.3058098853 -0.09699654579 -2.993475062420374e-05 -5.3057414981567844e-05
0.3111313581 -0.09699654579 -3.252551360763098e-05 -5.323299845251657e-05
0.3164528012 -0.09699654579 -3.510911609740186e-05 -5.3412437975692175e-05
0.3217742741 -0.09699654579 -3.769239146003085e-05 -5.3575532074307785e-05
0.3270957172 -0.09699654579 -4.022486184544928e-05 -5.365267975482165e-05
0.3324171901 -0.09699654579 -4.276286849246252e-05 -5.373011337846555e-05
0.3377386332 -0.09699654579 -4.530228837808654e-05 -5.3812714518827364e-05
0.343060106 -0.09699654579 -4.7843124116729057e-05 -5.389581335094394e-05
0.3483815491 -0.09699654579 -5.038905334492695e-05 -5.3970511346982294e-05
0.353703022 -0.09699654579 -5.2927576618494085e-05 -5.399352575337608e-05
0.3590244651 -0.09699654579 -5.5464186499531445e-05 -5.39365502189534e-05
0.364345938 -0.09699654579 -5.801352859417153e-05 -5.387377177121634e-05
0.369667381 -0.09699654579 -6.053997768102815e-05 -5.380885991144143e-05
0.3749888539 -0.09699654579 -6.304160704293833e-05 -5.374646756611332e-05
0.380310297 -0.09699654579 -6.553669287783793e-05 -5.369677281054088e-05
0.3856317699 -0.09699654579 -6.808633315487435e-05 -5.358772375087325e-05
0.390953213 -0.09699654579 -7.064132391548152e-05 -5.348385915632813e-05
0.3962746859 -0.09699654579 -7.321590479355858e-05 -5.336894472160569e-05
0.4015961289 -0.09699654579 -7.577339083025025e-05 -5.326685362902192e-05
0.4069176018 -0.09699654579 -7.83294943051486e-05 -5.3152509204440896e-05
0.4122390449 -0.09699654579 -8.08544432381466e-05 -5.3078935412981545e-05
0.4175605178 -0.09699654579 -8.335375416625206e-05 -5.307504814411613e-05
0.4228819609 -0.09699654579 -8.581567466748527e-05 -5.305792935462079e-05
0.4282034338 -0.09699654579 -8.828533194745906e-05 -5.301943566671322e-05
0.4335248768 -0.09699654579 -9.073965040245238e-05 -5.298904084094534e-05
0.4388463497 -0.09699654579 -9.309207269058964e-05 -5.2997260586583136e-05
0.4441677928 -0.09699654579 -9.517590534390795e-05 -5.299359833109818e-05
0.4494892657 -0.09699654579 -9.723810136288912e-05 -5.2971497037379304e-05
0.4548107088 -0.09699654579 -9.930849071394698e-05 -5.2956218444566823e-05
0.4601321816 -0.09699654579 -0.00010136358199131976 -5.2942286418938414e-05
0.4654536247 -0.09699654579 -0.00010323158709512181 -5.2762100106479686e-05
0.4707750976 -0.09699654579 -0.00010478459364469032 -5.248647883766759e-05
0.4760965407 -0.09699654579 -0.00010632639167511903 -5.2237519610402124e-05
0.4814180136 -0.09699654579 -0.0001078804839793375 -5.196602909967557e-05
0.4867394567 -0.09699654579 -0.00010947821287256368 -5.1638691575341464e-05
0.4920609295 -0.09699654579 -0.00011069668747923245 -5.102057538641832e-05
0.4973823726 -0.09699654579 -0.00011182840090139644 -5.033864930072217e-05
0.5027038455 -0.09699654579 -0.00011294140144603389 -4.965259898694221e-05
0.5080252886 -0.09699654579 -0.0001140964103134025 -4.894441602041411e-05
0.5133467317 -0.09699654579 -0.00011500595810138346 -4.803286195103433e-05
0.5186682343 -0.09699654579 -0.00011563881524691312 -4.690300052250745e-05
0.5239896774 -0.09699654579 -0.00011637124008445182 -4.5674297506459704e-05
0.5293111205 -0.09699654579 -0.00011703593065032149 -4.4505852620832344e-05
0.5346325636 -0.09699654579 -0.00011742717028922929 -4.310428177917157e-05
0.5399540663 -0.09699654579 -0.00011752574116204525 -4.133896913145974e-05
0.5452755094 -0.09699654579 -0.00011770783204616308 -3.951785676892184e-05
0.5505969524 -0.09699654579 -0.0001178000603472772 -3.7755801983284686e-05
0.5559183955 -0.09699654579 -0.00011738027616754629 -3.548040272359869e-05
0.5612398982 -0.09699654579 -0.00011698313847922238 -3.289959126420526e-05
0.5665613413 -0.09699654579 -0.00011657878361603901 -3.0323926453956433e-05
0.5718827844 -0.09699654579 -0.00011571350334447994 -2.7522975533611382e-05
0.5772042274 -0.09699654579 -0.00011464223166867218 -2.4021934280744192e-05
0.5825257301 -0.09699654579 -0.00011356591491542351 -2.0522727761378512e-05
0.5878471732 -0.09699654579 -0.00011211271883242212 -1.6704709136461627e-05
0.5931686163 -0.09699654579 -0.00011043045536305046 -1.208051896107462e-05
0.5984900594 -0.09699654579 -0.0001085633077596759 -7.492121816055917e-06
0.6038115621 -0.09699654579 -0.00010646167657204658 -2.0175029326255493e-06
0.6091330051 -0.09699654579 -0.00010386631490562356 3.921110302006177e-06
0.6144544482 -0.09699654579 -0.00010146215528839413 1.0261091460410126e-05
0.6197758913 -0.09699654579 -9.845082276439297e-05 1.7735491970824544e-05
0.625097394 -0.09699654579 -9.541591117981482e-05 2.5512057575859403e-05
0.6304188371 -0.09699654579 -9.213358954754466e-05 3.436966503610531e-05
0.6357402802 -0.09699654579 -8.8394041704363e-05 4.375314507360535e-05
0.6410617828 -0.09699654579 -8.49184483358342e-05 5.4260963386342664e-05
0.6463832259 -0.09699654579 -8.113423453331407e-05 6.586319602606568e-05
0.651704669 -0.09699654579 -7.71655050110706e-05 7.846903615692574e-05
0.6570261121 -0.09699654579 -7.356699791849814e-05 9.273197851618724e-05
0.6623476148 -0.09699654579 -7.00046194477754e-05 0.00010799633346972113
0.6676690578 -0.09699654579 -6.641895083097389e-05 0.00012434746621326073
0.6729905009 -0.09699654579 -6.321210090588937e-05 0.00014250715325639517
0.678311944 -0.09699654579 -6.008957693465596e-05 0.00016219161599531165
0.6836334467 -0.09699654579 -5.770834434749801e-05 0.00018317942195037457
0.6889548898 -0.09699654579 -5.6222469380681395e-05 0.00020622385316206146
0.6942763329 -0.09699654579 -5.5710155507134215e-05 0.0002311738751936527
0.6995977759 -0.09699654579 -5.5918519018546134e-05 0.0002580632351208441
0.7049192786 -0.09699654579 -5.755096056039255e-05 0.0002865445789632283
0.7102407217 -0.09699654579 -6.0817730526315015e-05 0.00031693842006737146
0.7155621648 -0.09699654579 -6.643139984725589e-05 0.00034949949011787946
0.7208836079 -0.09699654579 -7.3698934539984e-05 0.00038408885630672305
0.7262051105 -0.09699654579 -8.341045928715123e-05 0.0004202489802243118
0.7315265536 -0.09699654579 -9.60613713868973e-05 0.00045754203798820917
0.7368479967 -0.09699654579 -0.00011117270172696661 0.0004964794965892788
0.7421694398 -0.09699654579 -0.00013039071679366813 0.000536176538196233
0.7474909425 -0.09699654579 -0.0001523611145306949 0.000577140276417966
0.7528123856 -0.09699654579 -0.0001788428243161937 0.0006181195529648549
0.7581338286 -0.09699654579 -0.0002086396728532731 0.000659107270437671
-0.3008363545 -0.09367749095 2.257750592702462e-05 -0.00020073930540113734
-0.2955148816 -0.09367749095 3.2070067308057324e-05 -0.00021491069797591284
-0.2901934385 -0.09367749095 4.453712100546415e-05 -0.00022734873202996737
-0.2848719656 -0.09367749095 5.656172213635807e-05 -0.00023822089974322383