VARIABLES = X,Y,phix,phiy
ZONE I=200,J=200,F=POINT 
-0.3008363545 -0.1003156006 -7.228185875624183e-05 -0.0004504445082211599
-0.2955148816 -0.1003156006 -6.3377561358712e-05 -0.0004403607878875784
-0.2901934385 -0.1003156006 -5.949841518446872e-05 -0.0004318084738850853
-0.2848719656 -0.1003156006 -5.6239942747735e-05 -0.00042252022344806513
-0.2795505226 -0.1003156006 -5.308507427728051e-05 -0.00041206659887090593
-0.2742290497 -0.1003156006 -5.0816993373593753e-05 -0.00040151402547721404
-0.2689076066 -0.1003156006 -4.8459766267214704e-05 -0.00038988065256298623
-0.2635861337 -0.1003156006 -4.42652282884088e-05 -0.00037616942375245363
-0.2582646906 -0.1003156006 -4.1117292070317767e-05 -0.0003618514833594814
-0.2529432178 -0.1003156006 -3.841165917955929e-05 -0.00034715618685269374
-0.2476217598 -0.1003156006 -3.674629044237606e-05 -0.00033035349603778634
-0.2423003018 -0.1003156006 -3.362417200638293e-05 -0.0003101083379157254
-0.2369788438 -0.1003156006 -3.009348261794453e-05 -0.00028878554287199335
-0.2316573858 -0.1003156006 -2.6109626853776515e-05 -0.00026627234220954506
-0.2263359278 -0.1003156006 -2.328934831254775e-05 -0.00024204105558560355
-0.2210144699 -0.1003156006 -3.159344140025501e-05 -0.0002216923243718671
-0.2156930119 -0.1003156006 -4.0643274066858255e-05 -0.0002011067086921428
-0.2103715539 -0.1003156006 -5.077331414487458e-05 -0.00017973315056307848
-0.2050500959 -0.1003156006 -6.325994405743619e-05 -0.00016234979533825232
-0.1997286379 -0.1003156006 -7.600534662933605e-05 -0.00014604737773268653
-0.19440718 -0.1003156006 -9.024043099290788e-05 -0.00012948290091692238
-0.189085722 -0.1003156006 -0.00010364339171965286 -0.00011604796480816149
-0.183764264 -0.1003156006 -0.00011684133382835447 -0.00010384741595543838
-0.178442806 -0.1003156006 -0.00013041507920213876 -9.139519425537481e-05
-0.173121348 -0.1003156006 -0.00014515733681840352 -8.096808338798849e-05
-0.16779989 -0.1003156006 -0.00016019141891346908 -7.182797568555659e-05
-0.1624784321 -0.1003156006 -0.00017545497068636814 -6.245680006345681e-05
-0.1571569741 -0.1003156006 -0.00019141601454997586 -5.3644697265847386e-05
-0.1518355161 -0.1003156006 -0.00020807615989776188 -4.5803894139031955e-05
-0.1465140581 -0.1003156006 -0.00022470640542016326 -3.78070869188127e-05
-0.1411926001 -0.1003156006 -0.00024225879503525236 -3.0573247670139016e-05
-0.1358711421 -0.1003156006 -0.00025942227081496836 -2.5511051670978267e-05
-0.1305496842 -0.1003156006 -0.000276580232781835 -2.0449344448619147e-05
-0.1252282262 -0.1003156006 -0.0002942906566001838 -1.5564431211599938e-05
-0.1199067682 -0.1003156006 -0.0003113500029818286 -1.2780880715455256e-05
-0.1145853102 -0.1003156006 -0.0003280662375376345 -1.0924719049664712e-05
-0.1092638522 -0.1003156006 -0.00034510145905701126 -9.249507003656058e-06
-0.1039423943 -0.1003156006 -0.00036205370123070944 -7.379072964213399e-06
-0.09862093627 -0.1003156006 -0.0003769944477820133 -8.52602154920177e-06
-0.09329947084 -0.1003156006 -0.0003921260855239422 -9.845276878385243e-06
-0.08797801286 -0.1003156006 -0.00040726463119797676 -1.1164425300177929e-05
-0.08265655488 -0.1003156006 -0.00042256225198295417 -1.2577324938662674e-05
-0.0773350969 -0.1003156006 -0.00043560324446492867 -1.565762864674286e-05
-0.07201363891 -0.1003156006 -0.0004485994453208644 -1.8637672346302268e-05
-0.06669218093 -0.1003156006 -0.0004616013955866496 -2.1617797141935586e-05
-0.06137072667 -0.1003156006 -0.0004747550503891527 -2.4797552371935677e-05
-0.05604926869 -0.1003156006 -0.00048703492461905706 -2.8352448998765626e-05
-0.05072781071 -0.1003156006 -0.0004988983178843214 -3.207649031657262e-05
-0.045406349 -0.1003156006 -0.0005106860424206469 -3.57062867443622e-05
-0.04008489102 -0.1003156006 -0.0005226119254383145 -3.9434126438716954e-05
-0.03476343304 -0.1003156006 -0.0005341605406229664 -4.350549049414092e-05
-0.02944197692 -0.1003156006 -0.0005444091144141387 -4.8389192905446635e-05
-0.02412051894 -0.1003156006 -0.0005546858768270569 -5.33285983695719e-05
-0.01879905909 -0.1003156006 -0.000564994503478783 -5.835456411751061e-05
-0.01347760204 -0.1003156006 -0.0005752693696699466 -6.327810016763218e-05
-0.00815614406 -0.1003156006 -0.0005845067969924254 -6.875431370105381e-05
-0.00283468538 -0.1003156006 -0.0005927216389499856 -7.46596061395335e-05
0.002486772602 -0.1003156006 -0.000600963935566594 -8.069301647288819e-05
0.007808230817 -0.1003156006 -0.0006092080338257632 -8.67353524911655e-05
0.0131296888 -0.1003156006 -0.0006174188913480988 -9.266248805486876e-05
0.01845114678 -0.1003156006 -0.0006249481277982782 -9.868643314505658e-05
0.02377260476 -0.1003156006 -0.0006317832341001115 -0.00010476713145386684
0.02909406275 -0.1003156006 -0.000638634850172863 -0.00011092975802818397
0.03441552073 -0.1003156006 -0.0006454865541049175 -0.00011709219688885497
0.03973697871 -0.1003156006 -0.0006523209860797094 -0.00012318481635566824
0.04505843669 -0.1003156006 -0.0006588601511512619 -0.00012932702585630458
0.05037989467 -0.1003156006 -0.0006646249432839963 -0.00013555677539976079
0.05570135266 -0.1003156006 -0.0006704294017578659 -0.00014182693083615916
0.06102281436 -0.1003156006 -0.0006762188941323629 -0.0001481342959343852
0.06634426862 -0.1003156006 -0.0006820092628926341 -0.00015436730287432453
0.0716657266 -0.1003156006 -0.0006877707554328332 -0.00016058023087711076
0.07698718458 -0.1003156006 -0.0006921929558141955 -0.0001671291732653341
0.08230864257 -0.1003156006 -0.000696440458729993 -0.00017368112577455355
0.08763010055 -0.1003156006 -0.0007006877451717779 -0.0001802649965205829
0.09295155853 -0.1003156006 -0.0007049486984864932 -0.00018679531720568106
0.09827301651 -0.1003156006 -0.0007092002575992819 -0.00019331057964351274
0.1035944745 -0.1003156006 -0.0007130487176681187 -0.0001998086233192724
0.1089159325 -0.1003156006 -0.0007158784482852186 -0.00020618753796038933
0.1142373979 -0.1003156006 -0.0007187048236179938 -0.00021256662621884232
0.1195588559 -0.1003156006 -0.0007215854562085344 -0.00021882741415852952
0.1248803139 -0.1003156006 -0.0007244499355227667 -0.00022511421526686472
0.1302017719 -0.1003156006 -0.000727299266012056 -0.00023145264851085184
0.1355232298 -0.1003156006 -0.0007295383196535873 -0.00023769965529825296
0.1408446878 -0.1003156006 -0.0007313108480490988 -0.00024378775121327673
0.1461661458 -0.1003156006 -0.00073308712395204 -0.00024983737128702916
0.1514876038 -0.1003156006 -0.0007348510545701479 -0.0002558870611384945
0.1568090618 -0.1003156006 -0.000736621278796571 -0.000261936954725916
0.1621305197 -0.1003156006 -0.0007384100988769644 -0.00026798694184062253
0.1674519777 -0.1003156006 -0.000739577421500861 -0.00027396232432139075
0.1727734357 -0.1003156006 -0.0007403843694881624 -0.0002799707411386
0.1780948937 -0.1003156006 -0.0007411861381200742 -0.0002859786642186434
0.1834163517 -0.1003156006 -0.0007419870308264611 -0.0002919872868174496
0.1887378097 -0.1003156006 -0.0007428089197287278 -0.00029793590388455573
0.1940592676 -0.1003156006 -0.0007436174065129301 -0.00030384587537889585
0.1993807256 -0.1003156006 -0.0007435186329714905 -0.0003097865772020905
0.2047021836 -0.1003156006 -0.0007430808535638886 -0.00031571132426128345
0.2100236416 -0.1003156006 -0.0007426379374517335 -0.0003216420784062582
0.2153450996 -0.1003156006 -0.0007422526603802399 -0.00032738203981129763
0.2206665576 -0.1003156006 -0.0007418236423816356 -0.0003332275337485554
0.2259880155 -0.1003156006 -0.0007413887668512946 -0.00033907115900182763
0.2313094735 -0.1003156006 -0.00073973787172544 -0.0003447037245374192
0.2366309315 -0.1003156006 -0.0007377786785000007 -0.0003501143961207149
0.2419523895 -0.1003156006 -0.0007358144787498582 -0.00035549821038945303
0.2472738475 -0.1003156006 -0.0007338819430163189 -0.0003608887877126767
0.2525953054 -0.1003156006 -0.0007319528853676055 -0.00036628178611731614
0.2579167783 -0.1003156006 -0.0007300656325360261 -0.0003715877649330379
0.2632382214 -0.1003156006 -0.0007273235840269929 -0.0003762333407005385
0.2685596943 -0.1003156006 -0.0007243459606003664 -0.0003806769918116832
0.2738811374 -0.1003156006 -0.0007213264575324803 -0.00038517955682383756
0.2792026103 -0.1003156006 -0.0007183406831122319 -0.0003896406472755067
0.2845240533 -0.1003156006 -0.0007153763389952242 -0.0003940585050019064
0.2898455262 -0.1003156006 -0.0007124161065670951 -0.0003984768174629575
0.2951669693 -0.1003156006 -0.0007088694418087758 -0.00040263966008183955
0.3004884422 -0.1003156006 -0.0007052378426908406 -0.00040672336664540257
0.3058098853 -0.1003156006 -0.0007015891132051786 -0.0004107174015893173
0.3111313581 -0.1003156006 -0.0006979361214874298 -0.00041471016919196143
0.3164528012 -0.1003156006 -0.0006942915795957611 -0.0004187042611263603
0.3217742741 -0.1003156006 -0.0006906546920780145 -0.0004226811325578429
0.3270957172 -0.1003156006 -0.0006858682940755379 -0.00042651716698698344
0.3324171901 -0.1003156006 -0.0006810676789651741 -0.0004303363715202208
0.3377386332 -0.1003156006 -0.0006762472306329595 -0.00043415455882149696
0.343060106 -0.1003156006 -0.0006714295966750738 -0.0004379843182277949
0.3483815491 -0.1003156006 -0.0006666412555558632 -0.00044163889844875794
0.353703022 -0.1003156006 -0.0006614000629176982 -0.00044519625590033865
0.3590244651 -0.1003156006 -0.0006551434340613782 -0.0004485144658218639
0.364345938 -0.1003156006 -0.0006488931646838153 -0.0004518376568609146
0.369667381 -0.1003156006 -0.0006426633836161146 -0.00045497995054304645
0.3749888539 -0.1003156006 -0.0006364298232920216 -0.000458171381523299
0.380310297 -0.1003156006 -0.0006302049613929224 -0.00046138188482750523
0.3856317699 -0.1003156006 -0.0006227580664595929 -0.0004642590927754858
0.390953213 -0.1003156006 -0.0006150040155946539 -0.00046679977038970694
0.3962746859 -0.1003156006 -0.0006072428626815846 -0.0004693266929010127
0.4015961289 -0.1003156006 -0.0005994981296952208 -0.00047186340721892486
0.4069176018 -0.1003156006 -0.0005917140611879902 -0.00047441219659246123
0.4122390449 -0.1003156006 -0.0005834029803964845 -0.0004763827268108016
0.4175605178 -0.1003156006 -0.000574087060096917 -0.0004779134887023256
0.4228819609 -0.1003156006 -0.0005647312420097765 -0.00047950734004111685
0.4282034338 -0.1003156006 -0.0005553552611146851 -0.0004811162328334507
0.4335248768 -0.1003156006 -0.000546166452774077 -0.00048247315653396046
0.4388463497 -0.1003156006 -0.0005365391255873585 -0.0004835634205372333
0.4441677928 -0.1003156006 -0.0005258547092679504 -0.00048391485751322227
0.4494892657 -0.1003156006 -0.0005151711304812785 -0.00048424595157427577
0.4548107088 -0.1003156006 -0.0005046048848404327 -0.00048443155399387666
0.4601321816 -0.1003156006 -0.0004939860946680312 -0.00048468745457451223
0.4654536247 -0.1003156006 -0.00048281502532185317 -0.0004844910277817593
0.4707750976 -0.1003156006 -0.00047086079758721267 -0.00048355077241489573
0.4760965407 -0.1003156006 -0.0004590633262119225 -0.00048245538313396744
0.4814180136 -0.1003156006 -0.0004472646678222598 -0.00048136079543569795
0.4867394567 -0.1003156006 -0.00043549945722845345 -0.0004802534967138611
0.4920609295 -0.1003156006 -0.00042264788358131614 -0.00047822922849280583
0.4973823726 -0.1003156006 -0.00040974768394810184 -0.00047584099129814855
0.5027038455 -0.1003156006 -0.0003968513527606221 -0.00047345925508394173
0.5080252886 -0.1003156006 -0.00038395337349825254 -0.00047109254613969054
0.5133467317 -0.1003156006 -0.00037083805297475524 -0.000467941016616084
0.5186682343 -0.1003156006 -0.0003569048526027531 -0.00046428603776370894
0.5239896774 -0.1003156006 -0.00034306156589411073 -0.0004606104480989124
0.5293111205 -0.1003156006 -0.00032921393649351925 -0.000456903592669123
0.5346325636 -0.1003156006 -0.0003152555039699463 -0.0004524924217549993
0.5399540663 -0.1003156006 -0.0003005609818412933 -0.000447535690211648
0.5452755094 -0.1003156006 -0.00028586052205642346 -0.00044261515947683835
0.5505969524 -0.1003156006 -0.00027127634702451853 -0.00043760525120657836
0.5559183955 -0.1003156006 -0.0002563707416538399 -0.00043163154929976786
0.5612398982 -0.1003156006 -0.00024081973346022046 -0.00042553869113933374
0.5665613413 -0.1003156006 -0.00022536433164839368 -0.0004194146435168413
0.5718827844 -0.1003156006 -0.00021003415499232792 -0.00041275168090464847
0.5772042274 -0.1003156006 -0.0001940298499074485 -0.0004055636081369945
0.5825257301 -0.1003156006 -0.00017809931604715007 -0.0003984048756954127
0.5878471732 -0.1003156006 -0.0001619065851439873 -0.00039073863813441793
0.5931686163 -0.1003156006 -0.0001454931301181784 -0.00038265827402080596
0.5984900594 -0.1003156006 -0.00012896298750502056 -0.0003748071716490309
0.6038115621 -0.1003156006 -0.00011192842302948754 -0.0003662041511632295
0.6091330051 -0.1003156006 -9.497048429524945e-05 -0.0003574581780669024
0.6144544482 -0.1003156006 -7.785622445046994e-05 -0.0003485919522347083
0.6197758913 -0.1003156006 -6.037181138134958e-05 -0.0003392621337180673
0.625097394 -0.1003156006 -4.296229541641073e-05 -0.0003300285718801652
0.6304188371 -0.1003156006 -2.5225483362617225e-05 -0.0003205485284306509
0.6357402802 -0.1003156006 -7.254742962183612e-06 -0.0003108607470264596
0.6410617828 -0.1003156006 1.0959559666033933e-05 -0.00030170598984577125
0.6463832259 -0.1003156006 2.9339219613726975e-05 -0.00029214353612372644
0.651704669 -0.1003156006 4.7705555612378674e-05 -0.0002828354564989737
0.6570261121 -0.1003156006 6.658135296178853e-05 -0.0002735180561975058
0.6623476148 -0.1003156006 8.55399888486094e-05 -0.0002648667449008525
0.6676690578 -0.1003156006 0.00010498330780408924 -0.0002561939534391056
0.6729905009 -0.1003156006 0.00012507097239422254 -0.00024834615529528296
0.678311944 -0.1003156006 0.00014590630796845313 -0.00024062468673806707
0.6836334467 -0.1003156006 0.00016730724332937187 -0.0002335206933162877
0.6889548898 -0.1003156006 0.00018932128932197333 -0.00022781152261025324
0.6942763329 -0.1003156006 0.00021284875672216967 -0.0002224712190113872
0.6995977759 -0.1003156006 0.00023760524274021492 -0.0002182306439139715
0.7049192786 -0.1003156006 0.00026323582486204944 -0.00021448687166437808
0.7102407217 -0.1003156006 0.0002906669502465562 -0.00021315433885145884
0.7155621648 -0.1003156006 0.0003205419575608045 -0.00021235815635789988
0.7208836079 -0.1003156006 0.00035281800019544806 -0.00021259003258709618
0.7262051105 -0.1003156006 0.0003872201751947491 -0.00021462380216193404
0.7315265536 -0.1003156006 0.00042554490346089163 -0.00021799882303495045
0.7368479967 -0.1003156006 0.00046808683208436836 -0.0002238427788011021
0.7421694398 -0.1003156006 0.0005148385258763762 -0.00023106248542806542
0.7474909425 -0.1003156006 0.0005645040281964301 -0.00023726687291536085
0.7528123856 -0.1003156006 0.0006227432613403156 -0.0002464749835193516
0.7581338286 -0.1003156006 0.0006865426072434408 -0.00025728885633947594
-0.3008363545 -0.09699654579 -6.822109608181756e-05 -0.00045450202672036243
-0.2955148816 -0.09699654579 -5.8932578495228714e-05 -0.0004461375195763443
-0.2901934385 -0.09699654579 -4.988344550746117e-05 -0.00043492408140646355
-0.2848719656 -0.09699654579 -4.6517863160883706e-05 -0.0004250079118677322
-0.2795505226 -0.09699654579 -4.233048414756852e-05 -0.0004152945755090773
-0.2742290497 -0.09699654579 -3.931803310203514e-05 -0.00040406663088029073
-0.2689076066 -0.09699654579 -3.752554110200872e-05 -0.00039242994127303816
-0.2635861337 -0.09699654579 -3.300593162171249e-05 -0.00037911522131405526
-0.2582646906 -0.09699654579 -2.931917131139533e-05 -0.00036545183272586584
-0.2529432178 -0.09699654579 -2.68976041128431e-05 -0.0003494910371240231
-0.2476217598 -0.09699654579 -2.611391958179906e-05 -0.0003316963098324842
-0.2423003018 -0.09699654579 -2.3181187950281888e-05 -0.00031073159869547196
-0.2369788438 -0.09699654579 -1.8722906222146435e-05 -0.00028936418406046377
-0.2316573858 -0.09699654579 -1.4941807539922442e-05 -0.000265934027253834
-0.2263359278 -0.09699654579 -1.0772142062649004e-05 -0.00024035553474232484
-0.2210144699 -0.09699654579 -1.7099157403530297e-05 -0.0002181124570344105
-0.2156930119 -0.09699654579 -2.748443401188985e-05 -0.00019625191330882827
-0.2103715539 -0.09699654579 -3.871955858662366e-05 -0.00017377012380534479
-0.2050500959 -0.09699654579 -5.15367501248887e-05 -0.0001548644354867943
-0.1997286379 -0.09699654579 -6.585998312454582e-05 -0.00013828866671552437
-0.19440718 -0.09699654579 -8.05240082541333e-05 -0.00012112625048775374
-0.189085722 -0.09699654579 -9.45155359816765e-05 -0.00010674214936447958
-0.183764264 -0.09699654579 -0.00010871782610215543 -9.467181377688038e-05
-0.178442806 -0.09699654579 -0.00012250764911024973 -8.263230234610547e-05
-0.173121348 -0.09699654579 -0.00013750765848091577 -7.200187107033704e-05
-0.16779989 -0.09699654579 -0.0001528670475274546 -6.227171901990221e-05
-0.1624784321 -0.09699654579 -0.00016858240931305008 -5.272439133018671e-05
-0.1571569741 -0.09699654579 -0.00018543774399946636 -4.329319374660066e-05
-0.1518355161 -0.09699654579 -0.00020230836933802414 -3.510717628961808e-05
-0.1465140581 -0.09699654579 -0.00021981774549828677 -2.7074954076901767e-05
-0.1411926001 -0.09699654579 -0.0002372279328662921 -1.9329330260437658e-05
-0.1358711421 -0.09699654579 -0.0002550429182989982 -1.4478412349543612e-05
-0.1305496842 -0.09699654579 -0.000272999788922859 -9.557857739646296e-06
-0.1252282262 -0.09699654579 -0.0002912824288840085 -4.64139108193773e-06
-0.1199067682 -0.09699654579 -0.0003092076114619939 -2.145183328123485e-06
-0.1145853102 -0.09699654579 -0.0003263465568728655 -3.387140324539415e-07
-0.1092638522 -0.09699654579 -0.00034364364834115114 1.28808239570831e-06
-0.1039423943 -0.09699654579 -0.00036124982134025466 2.9079041114751884e-06
-0.09862093627 -0.09699654579 -0.0003764946366337162 1.450116067478794e-06
-0.09329947084 -0.09699654579 -0.00039185870769307566 -2.1966968694216304e-07
-0.08797801286 -0.09699654579 -0.0004073320812584157 -2.067466080437726e-06
-0.08265655488 -0.09699654579 -0.00042277702712892085 -3.657193729820814e-06
-0.0773350969 -0.09699654579 -0.0004359721882685879 -6.8957679503795446e-06
-0.07201363891 -0.09699654579 -0.0004492561968688967 -1.0201005091225867e-05
-0.06669218093 -0.09699654579 -0.0004625644855709328 -1.3496505170536635e-05
-0.06137072667 -0.09699654579 -0.00047585412272362716 -1.6849429729724797e-05
-0.05604926869 -0.09699654579 -0.0004883451430975358 -2.0685758560639035e-05
-0.05072781071 -0.09699654579 -0.0005003562684434036 -2.4504807324286075e-05
-0.045406349 -0.09699654579 -0.0005123668241655024 -2.8323938607874237e-05
-0.04008489102 -0.09699654579 -0.0005244404628335023 -3.224436610886127e-05
-0.03476343304 -0.09699654579 -0.0005361666118641435 -3.6576742028646885e-05
-0.02944197692 -0.09699654579 -0.0005465182829775753 -4.1769621411305774e-05
-0.02412051894 -0.09699654579 -0.0005568556894002228 -4.69514330681333e-05
-0.01879905909 -0.09699654579 -0.0005671965623986239 -5.213729392619038e-05
-0.01347760204 -0.09699654579 -0.0005775678878732006 -5.7378520584077594e-05
-0.00815614406 -0.09699654579 -0.0005868647168308204 -6.313706344705942e-05
-0.00283468538 -0.09699654579 -0.0005951163822690132 -6.928479675299974e-05
0.002486772602 -0.09699654579 -0.0006033820937888453 -7.547228664828407e-05
0.007808230817 -0.09699654579 -0.0006116504261239901 -8.167806124500175e-05
0.0131296888 -0.09699654579 -0.0006198923551916626 -8.7841487741801e-05
0.01845114678 -0.09699654579 -0.0006274561836899446 -9.406495915151175e-05
0.02377260476 -0.09699654579 -0.0006343511468426886 -0.00010030381278425194
0.02909406275 -0.09699654579 -0.0006412607533769128 -0.00010656941183038371
0.03441552073 -0.09699654579 -0.000648183705677047 -0.00011284869737028579
0.03973697871 -0.09699654579 -0.0006550773890058992 -0.00011908357540196103
0.04505843669 -0.09699654579 -0.0006616687203204988 -0.00012539102871421246
0.05037989467 -0.09699654579 -0.0006675244296210727 -0.00013178382969676947
0.05570135266 -0.09699654579 -0.0006733983389083123 -0.00013816473378970055
0.06102281436 -0.09699654579 -0.0006792914319222687 -0.00014459350970643325
0.06634426862 -0.09699654579 -0.0006851468121686204 -0.0001509707970944963
0.0716657266 -0.09699654579 -0.0006909962498298596 -0.00015734820781330842
0.07698718458 -0.09699654579 -0.0006954091512090442 -0.00016411350909169276
0.08230864257 -0.09699654579 -0.0006996689666137964 -0.00017087603274398052
0.08763010055 -0.09699654579 -0.0007039613577822628 -0.00017756468387648613
0.09295155853 -0.09699654579 -0.0007082223401338725 -0.00018427032971348494
0.09827301651 -0.09699654579 -0.0007124815153146039 -0.00019099494200140244
0.1035944745 -0.09699654579 -0.0007162929427894146 -0.00019768481009672096
0.1089159325 -0.09699654579 -0.0007190952217428959 -0.00020422698772971825
0.1142373979 -0.09699654579 -0.000721920092927658 -0.0002106903445777855
0.1195588559 -0.09699654579 -0.0007247544556989664 -0.00021713195853185585
0.1248803139 -0.09699654579 -0.0007275722021610217 -0.00022357343315221255
0.1302017719 -0.09699654579 -0.000730410903851876 -0.0002300208377632618
0.1355232298 -0.09699654579 -0.0007326060732238392 -0.0002364068334464674
0.1408446878 -0.09699654579 -0.000734371662918989 -0.00024255880627025426
0.1461661458 -0.09699654579 -0.0007361117658493271 -0.00024873907914136056
0.1514876038 -0.09699654579 -0.0007378367696285465 -0.00025492130528255327
0.1568090618 -0.09699654579 -0.0007395668176448829 -0.00026110012362017546
0.1621305197 -0.09699654579 -0.0007413173106905698 -0.0002672092120921787
0.1674519777 -0.09699654579 -0.0007423913309650446 -0.00027330828830068025
0.1727734357 -0.09699654579 -0.0007431974913373504 -0.00027934799707470556
0.1780948937 -0.09699654579 -0.0007439655613170304 -0.0002854629288440229
0.1834163517 -0.09699654579 -0.000744747341132015 -0.000291533062955616
0.1887378097 -0.09699654579 -0.0007455327663955138 -0.00029756936629070086
0.1940592676 -0.09699654579 -0.0007463100249080148 -0.0003036064983374709
0.1993807256 -0.09699654579 -0.0007461577105589323 -0.00030973189508967354
0.2047021836 -0.09699654579 -0.0007457135932087914 -0.00031585860443465367
0.2100236416 -0.09699654579 -0.0007452860432309824 -0.0003218384005265457
0.2153450996 -0.09699654579 -0.0007448294296604925 -0.0003278295466342562
0.2206665576 -0.09699654579 -0.0007443804127350445 -0.0003338213060386228
0.2259880155 -0.09699654579 -0.0007439694723872483 -0.0003397785843963225
0.2313094735 -0.09699654579 -0.0007422356295858041 -0.000345498342330301
0.2366309315 -0.09699654579 -0.0007401776476784956 -0.00035110325392671447
0.2419523895 -0.09699654579 -0.0007381067333600542 -0.0003567077096331699
0.2472738475 -0.09699654579 -0.0007360329827351593 -0.0003623122833525051
0.2525953054 -0.09699654579 -0.0007340243272740038 -0.00036781033444301163
0.2579167783 -0.09699654579 -0.0007320340709710087 -0.0003732563981512434
0.2632382214 -0.09699654579 -0.0007291341350003245 -0.000377975018787819
0.2685596943 -0.09699654579 -0.0007260274503129516 -0.0003825180281215286
0.2738811374 -0.09699654579 -0.0007229656708197691 -0.0003870196104265449
0.2792026103 -0.09699654579 -0.0007199398210233818 -0.0003914951806444216
0.2845240533 -0.09699654579 -0.000716919760228197 -0.0003959629694199764
0.2898455262 -0.09699654579 -0.0007138584044176135 -0.0004004651720809311
0.2951669693 -0.09699654579 -0.0007102852048014215 -0.00040469372397260644
0.3004884422 -0.09699654579 -0.0007066536241083214 -0.0004088415635938363
0.3058098853 -0.09699654579 -0.0007029913759056783 -0.0004129879954530637
0.3111313581 -0.09699654579 -0.0006993418620817905 -0.00041713445622220806
0.3164528012 -0.09699654579 -0.0006957087096690801 -0.0004212370147129806
0.3217742741 -0.09699654579 -0.0006920048712805024 -0.00042528136248955027
0.3270957172 -0.09699654579 -0.0006872132791664021 -0.0004292702726759731
0.3324171901 -0.09699654579 -0.0006824261287881136 -0.0004332599549509292
0.3377386332 -0.09699654579 -0.0006776607484240377 -0.0004371884125912826
0.343060106 -0.09699654579 -0.0006728747253017714 -0.00044107015153929837
0.3483815491 -0.09699654579 -0.0006680859456089623 -0.0004449592835812153
0.353703022 -0.09699654579 -0.0006627930348253736 -0.0004487504108490915
0.3590244651 -0.09699654579 -0.0006565337881726444 -0.0004522639779033498
0.364345938 -0.09699654579 -0.0006503046580887883 -0.00045566562445650106
0.369667381 -0.09699654579 -0.0006440727884062724 -0.00045906523247767696
0.3749888539 -0.09699654579 -0.0006378115178786712 -0.0004624714333736503
0.380310297 -0.09699654579 -0.000631556868636277 -0.0004657812449850814
0.3856317699 -0.09699654579 -0.0006240729618817974 -0.00046863295234595407
0.390953213 -0.09699654579 -0.0006162308772015607 -0.00047142040150036584
0.3962746859 -0.09699654579 -0.00060837689272114 -0.0004742803711474271
0.4015961289 -0.09699654579 -0.000600542650695481 -0.0004770066598233634
0.4069176018 -0.09699654579 -0.0005927658668350543 -0.00047963874253474745
0.4122390449 -0.09699654579 -0.0005842539419795006 -0.0004819116418407656
0.4175605178 -0.09699654579 -0.0005747874726579569 -0.00048371361855955507
0.4228819609 -0.09699654579 -0.0005654070369957042 -0.00048536280718562507
0.4282034338 -0.09699654579 -0.0005560549563200491 -0.000486944618366421
0.4335248768 -0.09699654579 -0.0005467294744630968 -0.0004885175545560193
0.4388463497 -0.09699654579 -0.0005368054734156485 -0.0004899496547496779
0.4441677928 -0.09699654579 -0.0005259990538019092 -0.0004904070469213114
0.4494892657 -0.09699654579 -0.0005152139673703961 -0.0004908880390698655
0.4548107088 -0.09699654579 -0.0005044302895994698 -0.0004913645425299332
0.4601321816 -0.09699654579 -0.0004936477797473547 -0.0004918186936446652
0.4654536247 -0.09699654579 -0.0004824474732710197 -0.0004915962335931591
0.4707750976 -0.09699654579 -0.00047039376774873714 -0.0004907553489857002
0.4760965407 -0.09699654579 -0.00045824438470789294 -0.0004900037166054356
0.4814180136 -0.09699654579 -0.0004461887761371777 -0.0004891706932913642
0.4867394567 -0.09699654579 -0.0004342655058792743 -0.0004882023093824006
0.4920609295 -0.09699654579 -0.0004213677482835414 -0.0004862332664894717
0.4973823726 -0.09699654579 -0.0004082179649750388 -0.000484020883451244
0.5027038455 -0.09699654579 -0.0003951073972141299 -0.00048176430886764774
0.5080252886 -0.09699654579 -0.00038204231337389663 -0.00047949024657788154
0.5133467317 -0.09699654579 -0.00036848752812846725 -0.00047662452960053024
0.5186682343 -0.09699654579 -0.0003543785679698916 -0.00047309896218001896
0.5239896774 -0.09699654579 -0.00034051135370235727 -0.0004694046496939447
0.5293111205 -0.09699654579 -0.0003264796416049691 -0.000465809760399805
0.5346325636 -0.09699654579 -0.00031202253176134244 -0.0004617031838930512
0.5399540663 -0.09699654579 -0.0002971531091584596 -0.00045684916564901317
0.5452755094 -0.09699654579 -0.0002824372353282617 -0.0004519184687910323
0.5505969524 -0.09699654579 -0.00026753932020835274 -0.00044707133555960484
0.5559183955 -0.09699654579 -0.00025201040863061876 -0.000441382780889926
0.5612398982 -0.09699654579 -0.00023659757207415905 -0.0004352937726887524
0.5665613413 -0.09699654579 -0.00022123144295894511 -0.0004291865634041814
0.5718827844 -0.09699654579 -0.00020521474886607677 -0.0004228314642453812
0.5772042274 -0.09699654579 -0.00018912560086246927 -0.00041572063305542
0.5825257301 -0.09699654579 -0.00017302095138131503 -0.000408608551619416
0.5878471732 -0.09699654579 -0.00015667076487473901 -0.0004012356415592821
0.5931686163 -0.09699654579 -0.00014004006140836182 -0.00039322304845650286
0.5984900594 -0.09699654579 -0.00012330791698238186 -0.00038522748605905713
0.6038115621 -0.09699654579 -0.00010646536016184248 -0.0003768041801562358
0.6091330051 -0.09699654579 -8.919374626329301e-05 -0.000368049403256393
0.6144544482 -0.09699654579 -7.209966478862167e-05 -0.00035926945203192763
0.6197758913 -0.09699654579 -5.459793300031596e-05 -0.00035008494400509124
0.625097394 -0.09699654579 -3.690167839762759e-05 -0.0003407589645669346
0.6304188371 -0.09699654579 -1.902015542884841e-05 -0.0003316664102928829
0.6357402802 -0.09699654579 -1.1385984370411761e-06 -0.00032235045047279676
0.6410617828 -0.09699654579 1.698683547294588e-05 -0.000312751243826246
0.6463832259 -0.09699654579 3.5067197167411665e-05 -0.000303602764929448
0.651704669 -0.09699654579 5.350861567903374e-05 -0.000294242395587618
0.6570261121 -0.09699654579 7.219046170981418e-05 -0.00028538515443610613
0.6623476148 -0.09699654579 9.125163232764905e-05 -0.00027656993849463997
0.6676690578 -0.09699654579 0.0001106602275850362 -0.0002688857263644193
0.6729905009 -0.09699654579 0.00013051079473561417 -0.00026104038195290445
0.678311944 -0.09699654579 0.00015072260993238845 -0.0002538451916020156
0.6836334467 -0.09699654579 0.00017138796109895558 -0.00024735606937624987
0.6889548898 -0.09699654579 0.00019328295446996086 -0.0002415795754901055
0.6942763329 -0.09699654579 0.00021589274378078097 -0.00023716641832044702
0.6995977759 -0.09699654579 0.0002394822067957529 -0.00023391901334471086
0.7049192786 -0.09699654579 0.0002646440739566189 -0.0002313486801879273
0.7102407217 -0.09699654579 0.0002916767208426306 -0.00023021930497486165
0.7155621648 -0.09699654579 0.0003208619992646975 -0.0002309169571105991
0.7208836079 -0.09699654579 0.00035190669892524843 -0.00023367811297867724
0.7262051105 -0.09699654579 0.0003859406308769175 -0.00023774021195852325
0.7315265536 -0.09699654579 0.00042185965420984094 -0.0002427762799994084
0.7368479967 -0.09699654579 0.00046300191092145854 -0.00025066878442128217
0.7421694398 -0.09699654579 0.0005085730701821237 -0.0002604529929787642
0.7474909425 -0.09699654579 0.0005588323409281613 -0.0002719956263511717
0.7528123856 -0.09699654579 0.0006152259203048962 -0.00028494210774129575
0.7581338286 -0.09699654579 0.0006791482218433786 -0.0002984612166290293
-0.3008363545 -0.09367749095 -6.38849741393545e-05 -0.00045961699351533607
-0.2955148816 -0.09367749095 -5.422996451387381e-05 -0.000450828918745381