VARIABLES = X,Y,phix,phiy
ZONE I=200,J=200,F=POINT 
-0.3008363545 -0.1003156006 -9.540296245906216e-05 -0.0003223695943030311
-0.2955148816 -0.1003156006 -9.353028989533172e-05 -0.0003075471378400102
-0.2901934385 -0.1003156006 -9.53270108150492e-05 -0.0002940082880781815
-0.2848719656 -0.1003156006 -9.775658144361404e-05 -0.00027997718945100924
-0.2795505226 -0.1003156006 -0.00010156458541427462 -0.0002654019258749053
-0.2742290497 -0.1003156006 -0.00010722633076033865 -0.0002511237182646147
-0.2689076066 -0.1003156006 -0.00011363574520401188 -0.00023624189753566245
-0.2635861337 -0.1003156006 -0.00011842925440843567 -0.00022399727390903874
-0.2582646906 -0.1003156006 -0.00012423255226093474 -0.00021228808988807673
-0.2529432178 -0.1003156006 -0.0001308496518155658 -0.0002002928034484038
-0.2476217598 -0.1003156006 -0.00013860811866175154 -0.00018709523858900003
-0.2423003018 -0.1003156006 -0.00014666787605255448 -0.00017203885213815096
-0.2369788438 -0.1003156006 -0.00015510097611732778 -0.00015702560867285418
-0.2316573858 -0.1003156006 -0.00016382179285453433 -0.00014171803463923111
-0.2263359278 -0.1003156006 -0.00017295975899076993 -0.00012680346474000983
-0.2210144699 -0.1003156006 -0.00018471334140723026 -0.00011717059354291453
-0.2156930119 -0.1003156006 -0.00019736777214496572 -0.00010780166550189539
-0.2103715539 -0.1003156006 -0.00021156646957246785 -9.871095674222075e-05
-0.2050500959 -0.1003156006 -0.00022393484538468732 -8.932797699143271e-05
-0.1997286379 -0.1003156006 -0.00023631685898834858 -8.035505029453824e-05
-0.19440718 -0.1003156006 -0.00024972744377671486 -7.135103070819177e-05
-0.189085722 -0.1003156006 -0.00026180165070402575 -6.480606310149227e-05
-0.183764264 -0.1003156006 -0.0002733237813510418 -5.907241928684044e-05
-0.178442806 -0.1003156006 -0.00028520467542746315 -5.31083040164508e-05
-0.173121348 -0.1003156006 -0.0002985230808675711 -4.729468376122843e-05
-0.16779989 -0.1003156006 -0.00031198897573193543 -4.212976941461734e-05
-0.1624784321 -0.1003156006 -0.0003250829742664688 -3.680470959207139e-05
-0.1571569741 -0.1003156006 -0.00033816783508653313 -3.252912426638434e-05
-0.1518355161 -0.1003156006 -0.00035099784878055704 -2.970396985006258e-05
-0.1465140581 -0.1003156006 -0.00036371304256158153 -2.7006452558115476e-05
-0.1411926001 -0.1003156006 -0.0003767026792968512 -2.4701376996621827e-05
-0.1358711421 -0.1003156006 -0.0003892079321617282 -2.3128679704187915e-05
-0.1305496842 -0.1003156006 -0.00040172764060721094 -2.155649890954615e-05
-0.1252282262 -0.1003156006 -0.00041426564602210515 -2.0034728340298397e-05
-0.1199067682 -0.1003156006 -0.0004263982440542066 -1.9133934546985054e-05
-0.1145853102 -0.1003156006 -0.00043832590728432454 -1.85535203329973e-05
-0.1092638522 -0.1003156006 -0.00045034863706700114 -1.8070645545627616e-05
-0.1039423943 -0.1003156006 -0.00046235092833147884 -1.7517069166438285e-05
-0.09862093627 -0.1003156006 -0.00047309059840085053 -1.8526999308218503e-05
-0.09329947084 -0.1003156006 -0.00048387406622972176 -1.9632856331143915e-05
-0.08797801286 -0.1003156006 -0.0004946395469906322 -2.073910293967594e-05
-0.08265655488 -0.1003156006 -0.0005055085380117878 -2.1874577475195817e-05
-0.0773350969 -0.1003156006 -0.0005155359591883423 -2.3295983841124085e-05
-0.07201363891 -0.1003156006 -0.0005255488895245271 -2.4676333782153435e-05
-0.06669218093 -0.1003156006 -0.0005355642697426154 -2.605679398037075e-05
-0.06137072667 -0.1003156006 -0.000545625509056369 -2.749455504855124e-05
-0.05604926869 -0.1003156006 -0.0005555353413569133 -2.8990352219565914e-05
-0.05072781071 -0.1003156006 -0.0005653187016276624 -3.052052105008357e-05
-0.045406349 -0.1003156006 -0.0005750727206518353 -3.201039996638338e-05
-0.04008489102 -0.1003156006 -0.0005848826766919265 -3.3542327507714896e-05
-0.03476343304 -0.1003156006 -0.0005944525655435691 -3.539277135124648e-05
-0.02944197692 -0.1003156006 -0.0006032905900402232 -3.7943264377185914e-05
-0.02412051894 -0.1003156006 -0.0006121266177655656 -4.0525299371237106e-05
-0.01879905909 -0.1003156006 -0.0006209803295705088 -4.315418280702242e-05
-0.01347760204 -0.1003156006 -0.0006298307404082609 -4.5728630216835166e-05
-0.00815614406 -0.1003156006 -0.0006381196848006511 -4.865535715991177e-05
-0.00283468538 -0.1003156006 -0.0006458712675214957 -5.1843440864632376e-05
0.002486772602 -0.1003156006 -0.0006536623979925921 -5.509594964525197e-05
0.007808230817 -0.1003156006 -0.0006614531105507185 -5.835315297435357e-05
0.0131296888 -0.1003156006 -0.0006692140719870291 -6.155194087681958e-05
0.01845114678 -0.1003156006 -0.0006766472727470219 -6.481941133744043e-05
0.02377260476 -0.1003156006 -0.0006837699096977909 -6.81210052378387e-05
0.02909406275 -0.1003156006 -0.0006909013374802571 -7.146534384220304e-05
0.03441552073 -0.1003156006 -0.0006980384792427597 -7.4809551673191e-05
0.03973697871 -0.1003156006 -0.00070515976609921 -7.811717543757229e-05
0.04505843669 -0.1003156006 -0.0007120122511673302 -8.155300244780136e-05
0.05037989467 -0.1003156006 -0.0007183535853761888 -8.519697359199694e-05
0.05570135266 -0.1003156006 -0.0007247338451336823 -8.887342655666879e-05
0.06102281436 -0.1003156006 -0.0007311103035906252 -9.256478161973603e-05
0.06634426862 -0.1003156006 -0.0007374617194562869 -9.621472346744053e-05
0.0716657266 -0.1003156006 -0.0007438011202544052 -9.984864684671616e-05
0.07698718458 -0.1003156006 -0.0007494521253346724 -0.00010374113483877653
0.08230864257 -0.1003156006 -0.000755025856137946 -0.00010763867336092216
0.08763010055 -0.1003156006 -0.0007606161484178384 -0.00011155812068295747
0.09295155853 -0.1003156006 -0.0007661953450598724 -0.00011544735233762771
0.09827301651 -0.1003156006 -0.0007717650220781093 -0.00011932579798027855
0.1035944745 -0.1003156006 -0.000777075501059401 -0.0001232960893835965
0.1089159325 -0.1003156006 -0.0007818031728296615 -0.00012740085876692303
0.1142373979 -0.1003156006 -0.0007865342039427706 -0.0001315053985515228
0.1195588559 -0.1003156006 -0.0007912727533410357 -0.00013552835720332957
0.1248803139 -0.1003156006 -0.0007960004265838035 -0.0001395754638066971
0.1302017719 -0.1003156006 -0.0008007307072308337 -0.0001436490796336252
0.1355232298 -0.1003156006 -0.000804866161888522 -0.00014774795021972026
0.1408446878 -0.1003156006 -0.0008085598529733126 -0.00015181178339494132
0.1461661458 -0.1003156006 -0.0008122803260354455 -0.00015583228944948666
0.1514876038 -0.1003156006 -0.0008159863111556922 -0.00015985256977532072
0.1568090618 -0.1003156006 -0.0008196942224890697 -0.00016387326883722097
0.1621305197 -0.1003156006 -0.0008234203962766741 -0.0001678963914231381
0.1674519777 -0.1003156006 -0.000826798953599938 -0.0001715533221533123
0.1727734357 -0.1003156006 -0.0008299773913217769 -0.00017507474924846356
0.1780948937 -0.1003156006 -0.0008331539791358021 -0.00017859655049245413
0.1834163517 -0.1003156006 -0.000836328331693863 -0.0001821185593384483
0.1887378097 -0.1003156006 -0.0008395273289167842 -0.00018562803399746982
0.1940592676 -0.1003156006 -0.0008427468674860593 -0.000189140556116829
0.1993807256 -0.1003156006 -0.0008459422878356147 -0.00019268911630970092
0.2047021836 -0.1003156006 -0.0008490975501157511 -0.00019623711179709208
0.2100236416 -0.1003156006 -0.0008522628905081255 -0.00019979284576402594
0.2153450996 -0.1003156006 -0.0008554329292666698 -0.00020329838549876017
0.2206665576 -0.1003156006 -0.0008585911521607596 -0.0002068307605120624
0.2259880155 -0.1003156006 -0.0008617438034931297 -0.00021036627116876528
0.2313094735 -0.1003156006 -0.0008645392225246174 -0.00021419657971837735
0.2366309315 -0.1003156006 -0.0008672303689901907 -0.00021805335341028488
0.2419523895 -0.1003156006 -0.000869904959345929 -0.000221894236892255
0.2472738475 -0.1003156006 -0.0008726002696253963 -0.00022573605085759692
0.2525953054 -0.1003156006 -0.0008753075224963377 -0.000229567802120288
0.2579167783 -0.1003156006 -0.0008780056790084108 -0.00023336694956025645
0.2632382214 -0.1003156006 -0.0008801771702074074 -0.00023729546537149576
0.2685596943 -0.1003156006 -0.0008822192408467688 -0.0002412517176464149
0.2738811374 -0.1003156006 -0.0008842555943886319 -0.00024525448465389604
0.2792026103 -0.1003156006 -0.0008863045527514205 -0.0002492269446340905
0.2845240533 -0.1003156006 -0.0008883291349684234 -0.0002531392665313925
0.2898455262 -0.1003156006 -0.0008903442487881203 -0.00025705248941876194
0.2951669693 -0.1003156006 -0.0008916542023717067 -0.00026104565810821203
0.3004884422 -0.1003156006 -0.0008928824353981915 -0.0002650419095306794
0.3058098853 -0.1003156006 -0.000894110713466101 -0.00026895463641449637
0.3111313581 -0.1003156006 -0.0008953349370905589 -0.0002728659947537493
0.3164528012 -0.1003156006 -0.0008965728215133396 -0.00027677844567453025
0.3217742741 -0.1003156006 -0.0008977714982541672 -0.00028069399764695235
0.3270957172 -0.1003156006 -0.0008985200267957217 -0.00028430766742613267
0.3324171901 -0.1003156006 -0.0008992510631726523 -0.0002879016067019154
0.3377386332 -0.1003156006 -0.0008999991400486381 -0.00029149533116257014
0.343060106 -0.1003156006 -0.0009007238207000097 -0.0002951028705146677
0.3483815491 -0.1003156006 -0.0009014680181381115 -0.0002986724688667099
0.353703022 -0.1003156006 -0.0009021909909566648 -0.0003022951293959171
0.3590244651 -0.1003156006 -0.0009028742283386784 -0.0003060576124677151
0.364345938 -0.1003156006 -0.0009035475609540356 -0.0003098263174263145
0.369667381 -0.1003156006 -0.0009041668646894624 -0.0003135540079089831
0.3749888539 -0.1003156006 -0.0009047901450700901 -0.00031730050454835076
0.380310297 -0.1003156006 -0.0009054366940218551 -0.0003210376893320542
0.3856317699 -0.1003156006 -0.0009056138289674673 -0.0003252411540188764
0.390953213 -0.1003156006 -0.0009056001438850349 -0.0003294917364667788
0.3962746859 -0.1003156006 -0.0009055844879272378 -0.0003337251972836197
0.4015961289 -0.1003156006 -0.0009055790738912707 -0.0003379584281157675
0.4069176018 -0.1003156006 -0.0009055812779605155 -0.0003422055199176726
0.4122390449 -0.1003156006 -0.0009052232515674368 -0.0003463588947739961
0.4175605178 -0.1003156006 -0.0009043604145336641 -0.0003506198644726016
0.4228819609 -0.1003156006 -0.0009035066295084258 -0.00035488387803229835
0.4282034338 -0.1003156006 -0.0009026315886741041 -0.0003591711216209028
0.4335248768 -0.1003156006 -0.0009017864205961338 -0.0003633460077414202
0.4388463497 -0.1003156006 -0.0009008064156786408 -0.0003675294944748171
0.4441677928 -0.1003156006 -0.000899500145694801 -0.0003717704116160794
0.4494892657 -0.1003156006 -0.0008981635967649655 -0.0003760332402741201
0.4548107088 -0.1003156006 -0.0008968046664283453 -0.0003802668553363865
0.4601321816 -0.1003156006 -0.0008954935724596177 -0.00038448448093626904
0.4654536247 -0.1003156006 -0.0008940512137369596 -0.0003888168018285402
0.4707750976 -0.1003156006 -0.0008923974686935944 -0.00039339125656016487
0.4760965407 -0.1003156006 -0.000890741172621305 -0.00039789086101680573
0.4814180136 -0.1003156006 -0.0008890828882171704 -0.000402390781962237
0.4867394567 -0.1003156006 -0.0008874413801273976 -0.00040689205335323725
0.4920609295 -0.1003156006 -0.0008853538150323067 -0.00041179741712036607
0.4973823726 -0.1003156006 -0.0008832982394361758 -0.00041674449576551716
0.5027038455 -0.1003156006 -0.000881248263447838 -0.0004216970200258655
0.5080252886 -0.1003156006 -0.000879186845545467 -0.0004266631941009874
0.5133467317 -0.1003156006 -0.0008768393256230684 -0.0004317962280902121
0.5186682343 -0.1003156006 -0.0008743443601338285 -0.000437329292265347
0.5239896774 -0.1003156006 -0.0008719618007064797 -0.00044282695445804814
0.5293111205 -0.1003156006 -0.0008694535820934046 -0.0004483411602690959
0.5346325636 -0.1003156006 -0.0008668146163958166 -0.0004541093631007324
0.5399540663 -0.1003156006 -0.0008640617448295373 -0.00046043940841070693
0.5452755094 -0.1003156006 -0.000861489068459283 -0.0004667695416225238
0.5505969524 -0.1003156006 -0.000858671707625602 -0.00047306924853914224
0.5559183955 -0.1003156006 -0.000855650971557149 -0.0004801282930257112
0.5612398982 -0.1003156006 -0.0008527183576623928 -0.0004876300154291957
0.5665613413 -0.1003156006 -0.0008497462840772725 -0.0004951050968046871
0.5718827844 -0.1003156006 -0.0008464358462218192 -0.0005030070655706642
0.5772042274 -0.1003156006 -0.0008430413086657798 -0.0005118972379237914
0.5825257301 -0.1003156006 -0.0008398353505473946 -0.0005208217638089486
0.5878471732 -0.1003156006 -0.0008358722651570831 -0.0005302841650399189
0.5931686163 -0.1003156006 -0.000832063821167436 -0.0005408488923853395
0.5984900594 -0.1003156006 -0.0008282188562635694 -0.0005514752058794271
0.6038115621 -0.1003156006 -0.0008238783549263444 -0.0005633964352766143
0.6091330051 -0.1003156006 -0.0008193469048010521 -0.000575559012506143
0.6144544482 -0.1003156006 -0.0008149565714990573 -0.0005890257278215719
0.6197758913 -0.1003156006 -0.0008096220331173229 -0.0006032209288050306
0.625097394 -0.1003156006 -0.0008042509125657073 -0.0006184468833767787
0.6304188371 -0.1003156006 -0.0007983550783708793 -0.0006353155008058265
0.6357402802 -0.1003156006 -0.0007913007604491411 -0.0006526310718772895
0.6410617828 -0.1003156006 -0.0007840019168254173 -0.0006721172753321882
0.6463832259 -0.1003156006 -0.0007759940353633249 -0.0006922805943797405
0.651704669 -0.1003156006 -0.0007678055138356789 -0.0007136671375949135
0.6570261121 -0.1003156006 -0.0007576265381361815 -0.0007367174418753553
0.6623476148 -0.1003156006 -0.0007470102343446146 -0.0007618249191250837
0.6676690578 -0.1003156006 -0.0007352174248416399 -0.0007881393739010622
0.6729905009 -0.1003156006 -0.0007213168113743693 -0.0008172508196582774
0.678311944 -0.1003156006 -0.0007055023570898762 -0.0008473885505490301
0.6836334467 -0.1003156006 -0.0006882663279207419 -0.0008795421549254795
0.6889548898 -0.1003156006 -0.000669260671365441 -0.0009148757843974072
0.6942763329 -0.1003156006 -0.0006468418745984038 -0.0009518512024408016
0.6995977759 -0.1003156006 -0.0006219829057479975 -0.000990990524285996
0.7049192786 -0.1003156006 -0.0005946007199143908 -0.001031754018737185
0.7102407217 -0.1003156006 -0.0005639642652461789 -0.0010760287096604599
0.7155621648 -0.1003156006 -0.0005284686305324953 -0.0011219776485371646
0.7208836079 -0.1003156006 -0.0004886823973572356 -0.0011695181337353666
0.7262051105 -0.1003156006 -0.000445181539819657 -0.0012194273666490181
0.7315265536 -0.1003156006 -0.00039563357268668984 -0.0012714316267523553
0.7368479967 -0.1003156006 -0.0003396634409722903 -0.0013260512887672722
0.7421694398 -0.1003156006 -0.0002777874459760285 -0.0013823047304350588
0.7474909425 -0.1003156006 -0.00021187754896156706 -0.0014364795399348805
0.7528123856 -0.1003156006 -0.00013578681846085675 -0.0014944767592572396
0.7581338286 -0.1003156006 -5.345566823481704e-05 -0.0015535148178411119
-0.3008363545 -0.09699654579 -8.82149938896129e-05 -0.0003232485014043345
-0.2955148816 -0.09699654579 -8.589153155964422e-05 -0.0003089082681798809
-0.2901934385 -0.09699654579 -8.462406287139628e-05 -0.0002929156354906379
-0.2848719656 -0.09699654579 -8.751655740615217e-05 -0.00027858784226843746
-0.2795505226 -0.09699654579 -9.065087928926929e-05 -0.0002640289731185424
-0.2742290497 -0.09699654579 -9.569146336385963e-05 -0.000249079310232053
-0.2689076066 -0.09699654579 -0.00010308885506537407 -0.00023434656455464543
-0.2635861337 -0.09699654579 -0.00010938115125225944 -0.00021990100498301334
-0.2582646906 -0.09699654579 -0.0001146619203794956 -0.00020831213223599767
-0.2529432178 -0.09699654579 -0.00012175501311758223 -0.00019553131913941445
-0.2476217598 -0.09699654579 -0.00013051927794083783 -0.00018165917422030537
-0.2423003018 -0.09699654579 -0.00013904453822852594 -0.0001664021055891144
-0.2369788438 -0.09699654579 -0.00014721613419655348 -0.0001510710292558108
-0.2316573858 -0.09699654579 -0.0001563200054296307 -0.00013581100005583674
-0.2263359278 -0.09699654579 -0.0001656421677115448 -0.00012027705286990213
-0.2210144699 -0.09699654579 -0.00017711714822830413 -0.00010956397615893719
-0.2156930119 -0.09699654579 -0.00019140534353691 -0.00010023010701449912
-0.2103715539 -0.09699654579 -0.00020658677008253306 -9.104029639681525e-05
-0.2050500959 -0.09699654579 -0.00022014152843403463 -8.168628632987702e-05
-0.1997286379 -0.09699654579 -0.00023360663982193388 -7.268316824618514e-05
-0.19440718 -0.09699654579 -0.00024717681832549465 -6.360904707837464e-05
-0.189085722 -0.09699654579 -0.00025979243826084185 -5.641072481507649e-05
-0.183764264 -0.09699654579 -0.00027229570858900484 -5.031978424358362e-05
-0.178442806 -0.09699654579 -0.00028538462963502626 -4.350611860824408e-05
-0.173121348 -0.09699654579 -0.00029869607070317903 -3.757474234279256e-05
-0.16779989 -0.09699654579 -0.00031172425004699926 -3.2178247125662737e-05
-0.1624784321 -0.09699654579 -0.0003250749110826581 -2.7433489959504446e-05
-0.1571569741 -0.09699654579 -0.0003382790373602983 -2.405169296812961e-05
-0.1518355161 -0.09699654579 -0.00035115720421233123 -2.1672978064912702e-05
-0.1465140581 -0.09699654579 -0.00036400009315082664 -1.9374295681198284e-05
-0.1411926001 -0.09699654579 -0.0003767345595175703 -1.7029324789605942e-05
-0.1358711421 -0.09699654579 -0.0003892842292861321 -1.5518337503324787e-05
-0.1305496842 -0.09699654579 -0.0004017894813271898 -1.3956419713722031e-05
-0.1252282262 -0.09699654579 -0.00041449127443378257 -1.2404928671951815e-05
-0.1199067682 -0.09699654579 -0.00042690770801327813 -1.1657760828678512e-05
-0.1145853102 -0.09699654579 -0.00043903571651796253 -1.1131906734037396e-05
-0.1092638522 -0.09699654579 -0.0004512007643376268 -1.0688111103919503e-05
-0.1039423943 -0.09699654579 -0.0004634154312530606 -1.0280224863439251e-05
-0.09862093627 -0.09699654579 -0.0004742486778864028 -1.1460491089573595e-05
-0.09329947084 -0.09699654579 -0.00048509929547686174 -1.274385617512885e-05
-0.08797801286 -0.09699654579 -0.0004959565925171123 -1.4114642978948446e-05
-0.08265655488 -0.09699654579 -0.0005068576023632698 -1.535507757369559e-05
-0.0773350969 -0.09699654579 -0.0005169318487019529 -1.6810035644174952e-05
-0.07201363891 -0.09699654579 -0.0005270418724716917 -1.827755268995151e-05
-0.06669218093 -0.09699654579 -0.0005371538165152741 -1.974423142524338e-05
-0.06137072667 -0.09699654579 -0.0005472653795479603 -2.1228961624463263e-05
-0.05604926869 -0.09699654579 -0.0005572558840453007 -2.283445093165365e-05
-0.05072781071 -0.09699654579 -0.0005671060529787801 -2.4406668132229216e-05
-0.045406349 -0.09699654579 -0.0005769475406233763 -2.5979029829891175e-05
-0.04008489102 -0.09699654579 -0.0005868230880292303 -2.7594243102445266e-05
-0.03476343304 -0.09699654579 -0.0005964664417237681 -2.9567087091779392e-05
-0.02944197692 -0.09699654579 -0.0006053342140490433 -3.2290161970043095e-05
-0.02412051894 -0.09699654579 -0.000614199991049876 -3.500495474734892e-05
-0.01879905909 -0.09699654579 -0.0006230655280362463 -3.772430640328511e-05
-0.01347760204 -0.09699654579 -0.0006319368102099395 -4.047398993197423e-05
-0.00815614406 -0.09699654579 -0.0006402486630128976 -4.354948510413692e-05
-0.00283468538 -0.09699654579 -0.0006480358449970889 -4.685848603857876e-05
0.002486772602 -0.09699654579 -0.0006558238443197202 -5.018734988798285e-05
0.007808230817 -0.09699654579 -0.0006636124492360251 -5.3523082553998043e-05
0.0131296888 -0.09699654579 -0.0006713957582337113 -5.6840005293261046e-05
0.01845114678 -0.09699654579 -0.00067885263973659 -6.02116534970155e-05
0.02377260476 -0.09699654579 -0.0006860116863246853 -6.359547633635503e-05
0.02909406275 -0.09699654579 -0.0006931833439663771 -6.69980301021309e-05
0.03441552073 -0.09699654579 -0.0007003550836586108 -7.040624780632691e-05
0.03973697871 -0.09699654579 -0.0007075169922995451 -7.379047598383181e-05
0.04505843669 -0.09699654579 -0.0007144066501021162 -7.732382910902875e-05
0.05037989467 -0.09699654579 -0.0007208169759716675 -8.106885094027285e-05
0.05570135266 -0.09699654579 -0.0007272435490397175 -8.481357172225017e-05
0.06102281436 -0.09699654579 -0.0007336793136319188 -8.858550405665639e-05
0.06634426862 -0.09699654579 -0.0007400912244705623 -9.232114132461131e-05
0.0716657266 -0.09699654579 -0.00074649921054768 -9.605663481268777e-05
0.07698718458 -0.09699654579 -0.0007522052961166561 -0.00010006497156915961
0.08230864257 -0.09699654579 -0.0007578506180468762 -0.00010407345729786457
0.08763010055 -0.09699654579 -0.000763488561952795 -0.00010805274021599733
0.09295155853 -0.09699654579 -0.00076912220399338 -0.00011203003362043071
0.09827301651 -0.09699654579 -0.0007747498624274248 -0.00011601977848884977
0.1035944745 -0.09699654579 -0.0007801018652375912 -0.00012011291776627317
0.1089159325 -0.09699654579 -0.0007848836527798713 -0.00012434519464426885
0.1142373979 -0.09699654579 -0.0007896599877545456 -0.00012852640949505585
0.1195588559 -0.09699654579 -0.0007944372093894737 -0.00013268154431060342
0.1248803139 -0.09699654579 -0.0007992021209702864 -0.00013683668663739003
0.1302017719 -0.09699654579 -0.0008039899254733056 -0.00014101022466616033
0.1355232298 -0.09699654579 -0.0008081033169964143 -0.00014523351787652772
0.1408446878 -0.09699654579 -0.000811805042570288 -0.00014935238176894662
0.1461661458 -0.09699654579 -0.0008154813650836355 -0.00015348456184303326
0.1514876038 -0.09699654579 -0.0008191297927223867 -0.00015761522060143244
0.1568090618 -0.09699654579 -0.0008227833092629565 -0.00016174511331886566
0.1621305197 -0.09699654579 -0.000826458274351267 -0.0001658289954239809
0.1674519777 -0.09699654579 -0.000829735387880836 -0.00016950228592443873
0.1727734357 -0.09699654579 -0.0008328668456908514 -0.00017300216212849288
0.1780948937 -0.09699654579 -0.000835953077499149 -0.0001765292655724281
0.1834163517 -0.09699654579 -0.0008390641459006633 -0.00018003872056612154
0.1887378097 -0.09699654579 -0.0008422041196728418 -0.00018355663903410425
0.1940592676 -0.09699654579 -0.000845342254647866 -0.00018707452034917658
0.1993807256 -0.09699654579 -0.0008485151491591887 -0.00019064767301360018
0.2047021836 -0.09699654579 -0.0008516939898260601 -0.0001942224695666801
0.2100236416 -0.09699654579 -0.0008548640042376004 -0.00019777580282948588
0.2153450996 -0.09699654579 -0.0008580198268220702 -0.00020133472550031676
0.2206665576 -0.09699654579 -0.0008611787553421617 -0.00020489351873490867
0.2259880155 -0.09699654579 -0.000864350049650444 -0.00020843442542737404
0.2313094735 -0.09699654579 -0.0008671568780257863 -0.00021232025120381543
0.2366309315 -0.09699654579 -0.0008698489222296375 -0.00021625246704082155
0.2419523895 -0.09699654579 -0.0008725442389208765 -0.00022018439049430297
0.2472738475 -0.09699654579 -0.0008752317081336186 -0.00022411680026111294
0.2525953054 -0.09699654579 -0.0008779338371636674 -0.00022800959600827395
0.2579167783 -0.09699654579 -0.0008806161346954588 -0.00023187565091990702
0.2632382214 -0.09699654579 -0.0008827506160784152 -0.00023592129627571955
0.2685596943 -0.09699654579 -0.000884779689704461 -0.0002399901545907865
0.2738811374 -0.09699654579 -0.0008868149911916143 -0.00024403355342185468
0.2792026103 -0.09699654579 -0.0008888378394092301 -0.0002480328872282567
0.2845240533 -0.09699654579 -0.0008908715736184057 -0.000252039807029987
0.2898455262 -0.09699654579 -0.000892889880436442 -0.0002560717697087628
0.2951669693 -0.09699654579 -0.0008941470336822832 -0.00026017048722192437
0.3004884422 -0.09699654579 -0.0008953424633620964 -0.00026420974875469594
0.3058098853 -0.09699654579 -0.0008965457690994815 -0.0002682434556874663
0.3111313581 -0.09699654579 -0.0008977504405781917 -0.00027227585220146526
0.3164528012 -0.09699654579 -0.0008989648133968487 -0.00027628740689349997
0.3217742741 -0.09699654579 -0.0009001546755402203 -0.00028021844949070203
0.3270957172 -0.09699654579 -0.0009008657279226099 -0.0002838005519710026
0.3324171901 -0.09699654579 -0.0009015801644136853 -0.00028738447281396936
0.3377386332 -0.09699654579 -0.0009023030344553748 -0.0002909860676259895
0.343060106 -0.09699654579 -0.0009030336605396525 -0.0002945899960787563
0.3483815491 -0.09699654579 -0.0009037566601307838 -0.00029817567130339446
0.353703022 -0.09699654579 -0.0009045108976629328 -0.0003018376806108376
0.3590244651 -0.09699654579 -0.0009052437462516641 -0.0003056580814092152
0.364345938 -0.09699654579 -0.0009059775810395011 -0.0003094484496167905
0.369667381 -0.09699654579 -0.0009066843115976966 -0.0003132331799371469
0.3749888539 -0.09699654579 -0.0009074074870523062 -0.0003170176247795428
0.380310297 -0.09699654579 -0.000908063828129093 -0.0003207921125088034
0.3856317699 -0.09699654579 -0.0009082397739367959 -0.0003250099380154989
0.390953213 -0.09699654579 -0.0009082669836170002 -0.0003293985893077688
0.3962746859 -0.09699654579 -0.0009083346962259106 -0.0003338107592904938
0.4015961289 -0.09699654579 -0.0009083455745260624 -0.0003381644225964143
0.4069176018 -0.09699654579 -0.0009083644989381644 -0.00034245576435431105
0.4122390449 -0.09699654579 -0.0009079811945133976 -0.0003467641139996781
0.4175605178 -0.09699654579 -0.0009071025525432258 -0.0003511050643700011
0.4228819609 -0.09699654579 -0.0009062122709712795 -0.00035541180689176903
0.4282034338 -0.09699654579 -0.0009053403621707515 -0.00035967562375731506
0.4335248768 -0.09699654579 -0.0009044806973777472 -0.0003639380502523364
0.4388463497 -0.09699654579 -0.000903428018980192 -0.0003682897115542906
0.4441677928 -0.09699654579 -0.0009021020664471972 -0.00037256069624657415
0.4494892657 -0.09699654579 -0.0009008202351664969 -0.000376832617314059
0.4548107088 -0.09699654579 -0.0008995195940919215 -0.00038110191648534335
0.4601321816 -0.09699654579 -0.0008982030422817571 -0.00038539564003446197
0.4654536247 -0.09699654579 -0.000896751464986109 -0.0003897361148027072
0.4707750976 -0.09699654579 -0.0008951288324723258 -0.0003943403777095937
0.4760965407 -0.09699654579 -0.000893571732323727 -0.0003989410836878685
0.4814180136 -0.09699654579 -0.0008919505737296137 -0.0004035479862315929
0.4867394567 -0.09699654579 -0.0008903393256272849 -0.0004080854877899015
0.4920609295 -0.09699654579 -0.0008884217709447238 -0.0004129800621598071
0.4973823726 -0.09699654579 -0.0008864489024031432 -0.0004179987174702548
0.5027038455 -0.09699654579 -0.0008843028736692191 -0.0004230803841833143
0.5080252886 -0.09699654579 -0.0008822966355459987 -0.0004280812817597337
0.5133467317 -0.09699654579 -0.0008801461461361116 -0.00043330419850540273
0.5186682343 -0.09699654579 -0.0008777648166988988 -0.0004388880711194537
0.5239896774 -0.09699654579 -0.00087537059091992 -0.0004443959917770066
0.5293111205 -0.09699654579 -0.000872942332869437 -0.00044997095799499806
0.5346325636 -0.09699654579 -0.0008705859614811777 -0.0004558339008264124
0.5399540663 -0.09699654579 -0.0008679678219662064 -0.0004622238263350343
0.5452755094 -0.09699654579 -0.0008654027928104338 -0.0004685596771908901
0.5505969524 -0.09699654579 -0.0008627580727901051 -0.00047495842979169864
0.5559183955 -0.09699654579 -0.0008600864452959116 -0.00048217600708674055
0.5612398982 -0.09699654579 -0.0008572944508451693 -0.0004896591177982706
0.5665613413 -0.09699654579 -0.0008545151798425355 -0.0004971431872432067
0.5718827844 -0.09699654579 -0.0008517208394649877 -0.0005052453766745791
0.5772042274 -0.09699654579 -0.0008484692974852858 -0.0005141690247311625
0.5825257301 -0.09699654579 -0.0008452208469606054 -0.0005230951569237842
0.5878471732 -0.09699654579 -0.0008422581721511616 -0.0005326984723208764
0.5931686163 -0.09699654579 -0.0008386049735185012 -0.0005432470874602059
0.5984900594 -0.09699654579 -0.0008351648177778282 -0.0005539178108856281
0.6038115621 -0.09699654579 -0.0008314307026523686 -0.0005658409154266908
0.6091330051 -0.09699654579 -0.0008274289440754519 -0.0005784719848108429
0.6144544482 -0.09699654579 -0.0008232494498536223 -0.0005916678587339169
0.6197758913 -0.09699654579 -0.0008186782593964757 -0.000606566154331028
0.625097394 -0.09699654579 -0.0008136197459173538 -0.000621720929991322
0.6304188371 -0.09699654579 -0.0008081195578083795 -0.0006391227145589227
0.6357402802 -0.09699654579 -0.0008028717865895729 -0.0006570772125101586
0.6410617828 -0.09699654579 -0.0007961818501312008 -0.0006759226216743342
0.6463832259 -0.09699654579 -0.0007894762998954546 -0.0006969246831936932
0.651704669 -0.09699654579 -0.0007818631524377937 -0.0007188617127831722
0.6570261121 -0.09699654579 -0.0007727574187000951 -0.0007431405291348334
0.6623476148 -0.09699654579 -0.000762643685313323 -0.0007685042346020925
0.6676690578 -0.09699654579 -0.0007517278103849586 -0.0007965813914422266
0.6729905009 -0.09699654579 -0.0007391034620062651 -0.0008259467004024155
0.678311944 -0.09699654579 -0.0007253978153861658 -0.0008575071088850168
0.6836334467 -0.09699654579 -0.0007100829017138957 -0.0008908850417812287
0.6889548898 -0.09699654579 -0.0006917674163405684 -0.0009266822681205108
0.6942763329 -0.09699654579 -0.0006712604647179626 -0.0009653585253638658
0.6995977759 -0.09699654579 -0.0006486175378710902 -0.0010067533602934906
0.7049192786 -0.09699654579 -0.000622497512757913 -0.0010497600238119733
0.7102407217 -0.09699654579 -0.0005925525941611135 -0.00109547331110813
0.7155621648 -0.09699654579 -0.0005580724932083318 -0.0011441386733600067
0.7208836079 -0.09699654579 -0.0005201153487276146 -0.0011959208615889441
0.7262051105 -0.09699654579 -0.0004769316667522469 -0.0012494881753412348
0.7315265536 -0.09699654579 -0.000429861650127832 -0.001303672200745379
0.7368479967 -0.09699654579 -0.00037577318131252455 -0.0013617789510734367
0.7421694398 -0.09699654579 -0.0003150239099440703 -0.0014211977503658854
0.7474909425 -0.09699654579 -0.00024833480322511756 -0.0014824633595786423
0.7528123856 -0.09699654579 -0.00017400009688408615 -0.001544224814845557
0.7581338286 -0.09699654579 -9.105744279302384e-05 -0.0016064611041404439
-0.3008363545 -0.09367749095 -8.075674514362257e-05 -0.00032473394207370123
-0.2955148816 -0.09367749095 -7.814560055682927e-05 -0.0003098837520137708
-0.2901934385 -0.09367749095 -7.589390134281901e-05 -0.00029314408182619503