VARIABLES = X,Y,phix,phiy
ZONE I=200,J=200,F=POINT 
-0.3008363545 -0.1003156006 0.0001775848936142 -0.0003681314796217758
-0.2955148816 -0.1003156006 0.00018014575739204813 -0.00037704797443655915
-0.2901934385 -0.1003156006 0.00018409628496554006 -0.00038177158268364064
-0.2848719656 -0.1003156006 0.00019021697738542517 -0.00038664633140363694
-0.2795505226 -0.1003156006 0.00019734636746721084 -0.00039226110533721993
-0.2742290497 -0.1003156006 0.0002050429380175366 -0.0003968792326541601
-0.2689076066 -0.1003156006 0.00021479385222835203 -0.0004029530270113746
-0.2635861337 -0.1003156006 0.00021687233512471005 -0.0004147474908247363
-0.2582646906 -0.1003156006 0.00021537790774619223 -0.00042592766070053464
-0.2529432178 -0.1003156006 0.0002118195138773095 -0.0004374528672495209
-0.2476217598 -0.1003156006 0.0002089955997273612 -0.0004516556111152574
-0.2423003018 -0.1003156006 0.00021694163670339203 -0.00046446962826246827
-0.2369788438 -0.1003156006 0.0002333495841932883 -0.0004717568291237833
-0.2316573858 -0.1003156006 0.00025050684307661026 -0.0004790149391480079
-0.2263359278 -0.1003156006 0.000270165354820786 -0.00048770108596921346
-0.2210144699 -0.1003156006 0.00029375459544925617 -0.00048405747811552024
-0.2156930119 -0.1003156006 0.000318382212048647 -0.00047892736965222347
-0.2103715539 -0.1003156006 0.0003453093339845401 -0.00047211809489839285
-0.2050500959 -0.1003156006 0.0003618877527040834 -0.0004652263944629571
-0.1997286379 -0.1003156006 0.00037570319272281114 -0.0004551279474945877
-0.19440718 -0.1003156006 0.00038941474636650103 -0.00044255178965786694
-0.189085722 -0.1003156006 0.00040030709715561995 -0.0004313293359150683
-0.183764264 -0.1003156006 0.0004091966105862661 -0.00041886189467009173
-0.178442806 -0.1003156006 0.00041845141569810037 -0.00040633380268583266
-0.173121348 -0.1003156006 0.00042982531975069266 -0.0003982982859732018
-0.16779989 -0.1003156006 0.0004415317456739335 -0.00038870634034028097
-0.1624784321 -0.1003156006 0.0004537018729160467 -0.0003807133882266209
-0.1571569741 -0.1003156006 0.00046594850550069875 -0.00037212782341661493
-0.1518355161 -0.1003156006 0.00047682703473947034 -0.00036100013894075906
-0.1465140581 -0.1003156006 0.00048736876822201347 -0.00034997493636120734
-0.1411926001 -0.1003156006 0.0004991219993986391 -0.0003372258562109707
-0.1358711421 -0.1003156006 0.0005092056113446058 -0.00032287810073728957
-0.1305496842 -0.1003156006 0.0005192903823797164 -0.00030853036807563134
-0.1252282262 -0.1003156006 0.0005294483242296254 -0.00029360641127982733
-0.1199067682 -0.1003156006 0.0005383650102182623 -0.0002771615557557255
-0.1145853102 -0.1003156006 0.0005461332290968187 -0.00025988904104534254
-0.1092638522 -0.1003156006 0.000554017317745265 -0.00024226245935831235
-0.1039423943 -0.1003156006 0.0005622986675659344 -0.00022502622283789042
-0.09862093627 -0.1003156006 0.0005673127789842282 -0.00020562599485529946
-0.09329947084 -0.1003156006 0.0005724637590421127 -0.0001860497099667563
-0.08797801286 -0.1003156006 0.000577612776039597 -0.0001664722899153787
-0.08265655488 -0.1003156006 0.0005830392087471877 -0.000146516965524298
-0.0773350969 -0.1003156006 0.0005844880748112236 -0.00012555139812361343
-0.07201363891 -0.1003156006 0.0005860006870926116 -0.00010482169797712302
-0.06669218093 -0.1003156006 0.0005875170876047226 -8.409267945654832e-05
-0.06137072667 -0.1003156006 0.0005889876158178415 -6.293353151962432e-05
-0.05604926869 -0.1003156006 0.0005884843200375249 -4.216981948277001e-05
-0.05072781071 -0.1003156006 0.0005870368082985908 -2.1552885243789015e-05
-0.045406349 -0.1003156006 0.0005856386190499728 -1.1122537938770803e-06
-0.04008489102 -0.1003156006 0.0005842142282062718 1.9470348585744744e-05
-0.03476343304 -0.1003156006 0.0005825993047765129 3.9841245937191836e-05
-0.02944197692 -0.1003156006 0.000579491045362051 5.931356364887505e-05
-0.02412051894 -0.1003156006 0.0005763883374113492 7.882822659168362e-05
-0.01879905909 -0.1003156006 0.000573281883524133 9.843116834776121e-05
-0.01347760204 -0.1003156006 0.000570174416470511 0.00011791874572098798
-0.00815614406 -0.1003156006 0.0005663581280662493 0.0001373437078913078
-0.00283468538 -0.1003156006 0.000561485576806726 0.000156444820159968
0.002486772602 -0.1003156006 0.0005566760796506007 0.0001756777029418395
0.007808230817 -0.1003156006 0.000551847738152278 0.00019492286526324087
0.0131296888 -0.1003156006 0.0005469905128642283 0.00021405021173179773
0.01845114678 -0.1003156006 0.0005412952573197908 0.00023277774881811104
0.02377260476 -0.1003156006 0.0005346696670294643 0.0002509463526585386
0.02909406275 -0.1003156006 0.0005280354422624409 0.0002692627942431532
0.03441552073 -0.1003156006 0.0005214081176466728 0.00028757911907603705
0.03973697871 -0.1003156006 0.0005147717050513618 0.00030576869881766415
0.04505843669 -0.1003156006 0.0005077307748573846 0.00032406102208102006
0.05037989467 -0.1003156006 0.0004990355959961441 0.00034206694035597964
0.05570135266 -0.1003156006 0.0004903368886121168 0.00036016742160954165
0.06102281436 -0.1003156006 0.0004816065229682848 0.00037835815609175765
0.06634426862 -0.1003156006 0.0004729396720408957 0.0003963863770970002
0.0716657266 -0.1003156006 0.00046423570916575695 0.0004143577746844365
0.07698718458 -0.1003156006 0.0004521407993784151 0.0004316332205812391
0.08230864257 -0.1003156006 0.0004396744260968016 0.00044871148661112766
0.08763010055 -0.1003156006 0.00042718927560643765 0.00046586307853079017
0.09295155853 -0.1003156006 0.0004147602616669894 0.0004829040664932086
0.09827301651 -0.1003156006 0.000402343878783959 0.0004999051121243218
0.1035944745 -0.1003156006 0.0003894672490868252 0.0005162139229296479
0.1089159325 -0.1003156006 0.0003751105684474694 0.0005305942564137306
0.1142373979 -0.1003156006 0.00036076035887316785 0.0005449749178004868
0.1195588559 -0.1003156006 0.0003466174604047962 0.0005591937490245459
0.1248803139 -0.1003156006 0.0003324428201250324 0.0005734351844784476
0.1302017719 -0.1003156006 0.0003181426174794687 0.0005877665263725988
0.1355232298 -0.1003156006 0.00030361892193203003 0.0006011991370140305
0.1408446878 -0.1003156006 0.0002888461025966939 0.0006136737194202778
0.1461661458 -0.1003156006 0.00027403861413132413 0.0006261269929952983
0.1514876038 -0.1003156006 0.00025923006064936487 0.0006385800787242013
0.1568090618 -0.1003156006 0.00024441521042146313 0.0006510341485468519
0.1621305197 -0.1003156006 0.0002296331986722271 0.0006635110502665564
0.1674519777 -0.1003156006 0.00021339119789322893 0.0006756346676294354
0.1727734357 -0.1003156006 0.00019620347242268516 0.0006875989066695866
0.1780948937 -0.1003156006 0.00017902761383043893 0.0006995626167235177
0.1834163517 -0.1003156006 0.00016185709532850332 0.0007115265548293328
0.1887378097 -0.1003156006 0.00014478794539766744 0.0007233388090601285
0.1940592676 -0.1003156006 0.00012769247703494033 0.0007349724509058131
0.1993807256 -0.1003156006 0.00010823322925459884 0.0007442725348918445
0.2047021836 -0.1003156006 8.79231092250334e-05 0.0007526856077245516
0.2100236416 -0.1003156006 6.758885522709692e-05 0.0007610924338285237
0.2153450996 -0.1003156006 4.771690968246988e-05 0.0007692564973813007
0.2206665576 -0.1003156006 2.7601588097618447e-05 0.0007775552871015528
0.2259880155 -0.1003156006 7.4470981207362785e-06 0.0007858547219991557
0.2313094735 -0.1003156006 -1.3416224929793763e-05 0.0007910142484241888
0.2366309315 -0.1003156006 -3.4251920515594936e-05 0.0007950721183587247
0.2419523895 -0.1003156006 -5.508522175067159e-05 0.0007991684932081381
0.2472738475 -0.1003156006 -7.587155487313994e-05 0.000803299735126316
0.2525953054 -0.1003156006 -9.701944979549e-05 0.0008074047776378443
0.2579167783 -0.1003156006 -0.00011788655884270574 0.0008114472836325681
0.2632382214 -0.1003156006 -0.00013838509842208495 0.0008129154133897615
0.2685596943 -0.1003156006 -0.00015883364419744174 0.0008135505317073068
0.2738811374 -0.1003156006 -0.00017947939904563515 0.000814225078957583
0.2792026103 -0.1003156006 -0.00019994095185672548 0.0008148649229086447
0.2845240533 -0.1003156006 -0.00022027741162612571 0.0008155758040545124
0.2898455262 -0.1003156006 -0.0002406019292436896 0.0008162875953549415
0.2951669693 -0.1003156006 -0.00026011241171823373 0.0008146695889761335
0.3004884422 -0.1003156006 -0.00027944592586428283 0.0008125520165271573
0.3058098853 -0.1003156006 -0.0002987145473097444 0.0008105682815380133
0.3111313581 -0.1003156006 -0.0003179929116968756 0.0008085870079156169
0.3164528012 -0.1003156006 -0.00033726212052267166 0.000806603895214999
0.3217742741 -0.1003156006 -0.00035630832604528734 0.0008046354051854863
0.3270957172 -0.1003156006 -0.0003750195587720823 0.0008010625687946857
0.3324171901 -0.1003156006 -0.0003938307922606558 0.0007974698842749502
0.3377386332 -0.1003156006 -0.00041262579599400895 0.0007938775370295325
0.343060106 -0.1003156006 -0.00043143464150735035 0.0007902849539012888
0.3483815491 -0.1003156006 -0.00044995955525527047 0.0007867123862144142
0.353703022 -0.1003156006 -0.0004684209298453242 0.0007826600336864706
0.3590244651 -0.1003156006 -0.00048668819020976297 0.0007772753852940516
0.364345938 -0.1003156006 -0.0005049510568264062 0.0007718926261470782
0.369667381 -0.1003156006 -0.0005229959741275181 0.0007665355552858281
0.3749888539 -0.1003156006 -0.0005410481529845875 0.0007611449110805832
0.380310297 -0.1003156006 -0.000559205639397474 0.0007557969648835379
0.3856317699 -0.1003156006 -0.000577235716693173 0.0007497328800695525
0.390953213 -0.1003156006 -0.0005950635205392769 0.0007432572513513027
0.3962746859 -0.1003156006 -0.0006129573474391632 0.0007368215903480589
0.4015961289 -0.1003156006 -0.0006308615889320044 0.0007304182834008399
0.4069176018 -0.1003156006 -0.0006487520657345134 0.0007239980213497472
0.4122390449 -0.1003156006 -0.0006668136517520725 0.0007170395296752361
0.4175605178 -0.1003156006 -0.0006856388884044634 0.0007093562325517292
0.4228819609 -0.1003156006 -0.0007046109518550558 0.000701801711131493
0.4282034338 -0.1003156006 -0.000723538281487623 0.0006942127875234924
0.4335248768 -0.1003156006 -0.0007421976687661833 0.0006864144550684667
0.4388463497 -0.1003156006 -0.0007612685738749289 0.0006780562471377007
0.4441677928 -0.1003156006 -0.0007816267059492607 0.0006678992565589908
0.4494892657 -0.1003156006 -0.0008018335599363867 0.0006576506681169885
0.4548107088 -0.1003156006 -0.0008217077296163893 0.0006472521482035063
0.4601321816 -0.1003156006 -0.0008418575779267311 0.0006370037354390246
0.4654536247 -0.1003156006 -0.0008624637093749152 0.0006256162497543246
0.4707750976 -0.1003156006 -0.0008836916325882512 0.0006121963058007509
0.4760965407 -0.1003156006 -0.0009046017144188489 0.0005987021381875739
0.4814180136 -0.1003156006 -0.0009254995302278143 0.0005852084341195466
0.4867394567 -0.1003156006 -0.0009463518911057506 0.0005716517658359977
0.4920609295 -0.1003156006 -0.0009680330993386482 0.0005552335341154125
0.4973823726 -0.1003156006 -0.0009897338129416593 0.0005380495660998189
0.5027038455 -0.1003156006 -0.0010114752572644174 0.0005208462977926044
0.5080252886 -0.1003156006 -0.0010332306862638778 0.0005036402591965349
0.5133467317 -0.1003156006 -0.001054324301022269 0.0004842892352227895
0.5186682343 -0.1003156006 -0.0010763053241230267 0.0004624090814441882
0.5239896774 -0.1003156006 -0.0010984157220384743 0.0004406054186077209
0.5293111205 -0.1003156006 -0.001120158414759984 0.0004187448922951012
0.5346325636 -0.1003156006 -0.0011410056241322338 0.000394959920853741
0.5399540663 -0.1003156006 -0.001161966472461808 0.0003682073112430705
0.5452755094 -0.1003156006 -0.0011833551065970802 0.0003414201702250002
0.5505969524 -0.1003156006 -0.0012039884475322886 0.00031480524216821737
0.5559183955 -0.1003156006 -0.0012229089630116275 0.00028494504694533726
0.5612398982 -0.1003156006 -0.001242542986876702 0.0002533234560862512
0.5665613413 -0.1003156006 -0.0012618903875461333 0.00022176890928168893
0.5718827844 -0.1003156006 -0.0012794539893769678 0.00018921444786237104
0.5772042274 -0.1003156006 -0.0012961369074961993 0.00015333515741460695
0.5825257301 -0.1003156006 -0.0013129615303591692 0.00011743696545264115
0.5878471732 -0.1003156006 -0.0013278576661894066 8.044215942202753e-05
0.5931686163 -0.1003156006 -0.001341405963674829 4.092082041483882e-05
0.5984900594 -0.1003156006 -0.0013553463745778363 1.5830713679077416e-06
0.6038115621 -0.1003156006 -0.0013666948379989754 -4.039360536315582e-05
0.6091330051 -0.1003156006 -0.0013772794831436496 -8.245208662993419e-05
0.6144544482 -0.1003156006 -0.0013862004303129085 -0.00012633425471962243
0.6197758913 -0.1003156006 -0.001392817801386173 -0.0001708004710017161
0.625097394 -0.1003156006 -0.0013982913134700631 -0.000215614002108952
0.6304188371 -0.1003156006 -0.0014009019549129649 -0.0002615277243728577
0.6357402802 -0.1003156006 -0.001402040492438376 -0.0003067404990318786
0.6410617828 -0.1003156006 -0.0014015556056818637 -0.0003526684606209801
0.6463832259 -0.1003156006 -0.0013991000932049103 -0.0003982658113656187
0.651704669 -0.1003156006 -0.0013954527183652984 -0.00044359426148521343
0.6570261121 -0.1003156006 -0.0013895043128149278 -0.000487435383223896
0.6623476148 -0.1003156006 -0.0013825169087625941 -0.0005305407111969342
0.6676690578 -0.1003156006 -0.0013740729950436025 -0.0005729754199840025
0.6729905009 -0.1003156006 -0.0013645738135920082 -0.0006134141896869647
0.678311944 -0.1003156006 -0.001354815111515212 -0.000652781211830979
0.6836334467 -0.1003156006 -0.0013445471732557769 -0.0006909638237959345
0.6889548898 -0.1003156006 -0.0013345011338919603 -0.0007271604347815242
0.6942763329 -0.1003156006 -0.0013248844751283435 -0.000762503114302458
0.6995977759 -0.1003156006 -0.0013162263848360864 -0.0007960693224557447
0.7049192786 -0.1003156006 -0.0013084939024069794 -0.000828449577016674
0.7102407217 -0.1003156006 -0.0013032182179104612 -0.0008587221387309345
0.7155621648 -0.1003156006 -0.0012998091467811847 -0.0008887255489121389
0.7208836079 -0.1003156006 -0.001298852197171636 -0.0009183981727511076
0.7262051105 -0.1003156006 -0.0013007259033119246 -0.000947367008369262
0.7315265536 -0.1003156006 -0.0013060736858949995 -0.0009766680152636755
0.7368479967 -0.1003156006 -0.001316330653124055 -0.0010060809783462958
0.7421694398 -0.1003156006 -0.0013303400535583185 -0.0010363986552622982
0.7474909425 -0.1003156006 -0.001346342556938995 -0.0010689685529072293
0.7528123856 -0.1003156006 -0.0013698496473353548 -0.0011040898061823329
0.7581338286 -0.1003156006 -0.0013983140838904051 -0.001141211736185289
-0.3008363545 -0.09699654579 0.00017316338726031198 -0.00036948347854296024
-0.2955148816 -0.09699654579 0.0001755976604182277 -0.00037519210459920077
-0.2901934385 -0.09699654579 0.0001792312140078322 -0.00038471008707963346
-0.2848719656 -0.09699654579 0.00018567467140718426 -0.00039034219778931657
-0.2795505226 -0.09699654579 0.0001914846000036367 -0.0003951235548415257
-0.2742290497 -0.09699654579 0.00019980651074573695 -0.00040090223975048814
-0.2689076066 -0.09699654579 0.00021054925070941908 -0.00040646209146296005
-0.2635861337 -0.09699654579 0.0002155728594248336 -0.0004176083585249377
-0.2582646906 -0.09699654579 0.0002148010065217158 -0.0004274791335091535
-0.2529432178 -0.09699654579 0.0002116621279746001 -0.00044067589098035614
-0.2476217598 -0.09699654579 0.0002079915391758099 -0.0004560581647048741
-0.2423003018 -0.09699654579 0.0002080133530808483 -0.0004743123858353256
-0.2369788438 -0.09699654579 0.0002227319384789815 -0.000481243551607123
-0.2316573858 -0.09699654579 0.000241530074129459 -0.0004888611123320059
-0.2263359278 -0.09699654579 0.00026179365814731444 -0.0004991479840055779
-0.2210144699 -0.09699654579 0.00028530747470002473 -0.0004991334068387153
-0.2156930119 -0.09699654579 0.00031316793628109225 -0.000493027904254183
-0.2103715539 -0.09699654579 0.0003424261913772071 -0.0004851341780213799
-0.2050500959 -0.09699654579 0.000361206998294262 -0.000476740533069291
-0.1997286379 -0.09699654579 0.00037497978390907914 -0.0004640275252792957
-0.19440718 -0.09699654579 0.00038857935496439697 -0.00045081908659575014
-0.189085722 -0.09699654579 0.0003982406262496606 -0.0004386377833994326
-0.183764264 -0.09699654579 0.00040767214379737156 -0.0004249885530021394
-0.178442806 -0.09699654579 0.00041601510740416715 -0.0004137546561515058
-0.173121348 -0.09699654579 0.00042799315327090903 -0.00040516932689901587
-0.16779989 -0.09699654579 0.00044062813679123235 -0.0003982367493760649
-0.1624784321 -0.09699654579 0.0004529674095202785 -0.0003899107950792269
-0.1571569741 -0.09699654579 0.0004653883448237222 -0.0003807478418898263
-0.1518355161 -0.09699654579 0.00047519933447805413 -0.00036930523669072697
-0.1465140581 -0.09699654579 0.0004861570581059108 -0.00035643020285254805
-0.1411926001 -0.09699654579 0.000497038908271578 -0.0003442677397401217
-0.1358711421 -0.09699654579 0.0005072078559402528 -0.0003292437542230879
-0.1305496842 -0.09699654579 0.0005172886740607514 -0.000314428873932599
-0.1252282262 -0.09699654579 0.0005278863403535773 -0.0002992763540576241
-0.1199067682 -0.09699654579 0.0005368855984019081 -0.00028206050210614604
-0.1145853102 -0.09699654579 0.000544808223281076 -0.000264755046167148
-0.1092638522 -0.09699654579 0.000552718882571823 -0.00024708155662327196
-0.1039423943 -0.09699654579 0.0005610849564166269 -0.00022931844235706854
-0.09862093627 -0.09699654579 0.0005660953638850273 -0.00020952946727800293
-0.09329947084 -0.09699654579 0.0005710512813695547 -0.00018936521189817358
-0.08797801286 -0.09699654579 0.0005759697733865216 -0.00016891085431024855
-0.08265655488 -0.09699654579 0.0005812432525721483 -0.00014878763208548258
-0.0773350969 -0.09699654579 0.0005826799076539008 -0.00012749200839671048
-0.07201363891 -0.09699654579 0.0005841252710346199 -0.000106091763829746
-0.06669218093 -0.09699654579 0.0005856709149857036 -8.468137567947666e-05
-0.06137072667 -0.09699654579 0.0005872263287871522 -6.313076047342552e-05
-0.05604926869 -0.09699654579 0.0005866486320904293 -4.1814353940440524e-05
-0.05072781071 -0.09699654579 0.0005852593737058675 -2.10615064082867e-05
-0.045406349 -0.09699654579 0.0005838725251628084 -3.087192682089612e-07
-0.04008489102 -0.09699654579 0.0005824220517077136 2.0622236382003178e-05
-0.03476343304 -0.09699654579 0.0005807669191385848 4.1353521411987746e-05
-0.02944197692 -0.09699654579 0.0005777175167454165 6.104593809426153e-05
-0.02412051894 -0.09699654579 0.0005746252199443078 8.076641930081219e-05
-0.01879905909 -0.09699654579 0.0005715696730060379 0.0001004550952801343
-0.01347760204 -0.09699654579 0.000568525341167255 0.00012017306862750616
-0.00815614406 -0.09699654579 0.0005647293546064879 0.0001398502519921114
-0.00283468538 -0.09699654579 0.0005599198064266713 0.00015920672871282755
0.002486772602 -0.09699654579 0.0005551226913959202 0.00017859674420958303
0.007808230817 -0.09699654579 0.0005503042269526549 0.0001980207444268176
0.0131296888 -0.09699654579 0.0005454975513741357 0.00021738822010160494
0.01845114678 -0.09699654579 0.0005398310247379238 0.00023639315473220348
0.02377260476 -0.09699654579 0.0005331919959435689 0.0002548583584371629
0.02909406275 -0.09699654579 0.0005266134715950843 0.00027336733529674
0.03441552073 -0.09699654579 0.0005199925471561995 0.0002919067592141451
0.03973697871 -0.09699654579 0.0005133706748391565 0.0003103573868702679
0.04505843669 -0.09699654579 0.0005062916317661148 0.00032898238769615314
0.05037989467 -0.09699654579 0.0004975401720179304 0.00034737201270480767
0.05570135266 -0.09699654579 0.0004888158339166584 0.0003657359321128319
0.06102281436 -0.09699654579 0.00048006213875538203 0.00038422601883593335
0.06634426862 -0.09699654579 0.0004712985226622344 0.0004025836526351412
0.0716657266 -0.09699654579 0.00046253553681319706 0.00042094129730863147
0.07698718458 -0.09699654579 0.00045010234833661625 0.0004386289873159251
0.08230864257 -0.09699654579 0.0004373437976553814 0.00045613866570207265
0.08763010055 -0.09699654579 0.00042469019140668345 0.0004735394970018012
0.09295155853 -0.09699654579 0.00041204896480579004 0.0004908965764964556
0.09827301651 -0.09699654579 0.0003993425076217354 0.0005083251119956306
0.1035944745 -0.09699654579 0.0003861281976073191 0.0005249022226996565
0.1089159325 -0.09699654579 0.0003714912211968698 0.0005394217588265275
0.1142373979 -0.09699654579 0.0003570453625085968 0.000553852971055546
0.1195588559 -0.09699654579 0.0003426085402974151 0.0005682966289951366
0.1248803139 -0.09699654579 0.00032818119195043784 0.0005827403352723665
0.1302017719 -0.09699654579 0.0003137537383226017 0.0005971445066000501
0.1355232298 -0.09699654579 0.00029912285119704587 0.0006106402212336563
0.1408446878 -0.09699654579 0.0002843849006616569 0.0006232026445009868
0.1461661458 -0.09699654579 0.00026961810558261454 0.0006358232466143322
0.1514876038 -0.09699654579 0.00025475678074126653 0.0006484168920790776
0.1568090618 -0.09699654579 0.0002399028990782255 0.0006610101903857644
0.1621305197 -0.09699654579 0.0002251409485318727 0.000673500472563641
0.1674519777 -0.09699654579 0.0002087968711858005 0.0006859361608163631
0.1727734357 -0.09699654579 0.0001918187001067276 0.0006981231433440342
0.1780948937 -0.09699654579 0.00017473725184984513 0.0007104688155159857
0.1834163517 -0.09699654579 0.0001577726471109721 0.0007227360051356758
0.1887378097 -0.09699654579 0.00014075956622045874 0.0007347988459341556
0.1940592676 -0.09699654579 0.0001237332091571852 0.00074686121872936
0.1993807256 -0.09699654579 0.00010399104195207224 0.0007563313405602025
0.2047021836 -0.09699654579 8.344614473561804e-05 0.00076498059821652
0.2100236416 -0.09699654579 6.323582176665996e-05 0.0007734348756548214
0.2153450996 -0.09699654579 4.298753857932732e-05 0.0007819023968132799
0.2206665576 -0.09699654579 2.273209310116121e-05 0.0007903699228903088
0.2259880155 -0.09699654579 2.5753976665327826e-06 0.0007988020532354225
0.2313094735 -0.09699654579 -1.8293373222868544e-05 0.0008038315442501928
0.2366309315 -0.09699654579 -3.9605281432038756e-05 0.0008079196790892579
0.2419523895 -0.09699654579 -6.091127848341256e-05 0.0008120080091123863
0.2472738475 -0.09699654579 -8.22111403408147e-05 0.0008160961507363295
0.2525953054 -0.09699654579 -0.00010325935696296706 0.0008201477203806872
0.2579167783 -0.09699654579 -0.00012421833422581263 0.0008242405250905301
0.2632382214 -0.09699654579 -0.00014478246080805557 0.0008255253425032788
0.2685596943 -0.09699654579 -0.00016534772995299948 0.0008261321990128185
0.2738811374 -0.09699654579 -0.0001857210709144927 0.0008267355498502311
0.2792026103 -0.09699654579 -0.00020602263050320516 0.0008274284742473578
0.2845240533 -0.09699654579 -0.00022625659996227047 0.0008280578470806971
0.2898455262 -0.09699654579 -0.0002466581235102232 0.0008287212048165135
0.2951669693 -0.09699654579 -0.0002658879465585045 0.0008269024322871157
0.3004884422 -0.09699654579 -0.00028505763015549855 0.0008248195257042883
0.3058098853 -0.09699654579 -0.00030455801206584606 0.0008226836838098162
0.3111313581 -0.09699654579 -0.00032407080314414557 0.0008205514250490876
0.3164528012 -0.09699654579 -0.000343413624037777 0.0008184109775670154
0.3217742741 -0.09699654579 -0.00036266578329725635 0.0008164017349310723
0.3270957172 -0.09699654579 -0.00038143938639253566 0.000812790313760651
0.3324171901 -0.09699654579 -0.0004001878276589938 0.000809179463130209
0.3377386332 -0.09699654579 -0.0004188001261192628 0.0008055706511573141
0.343060106 -0.09699654579 -0.0004373892955509597 0.0008019243739554396
0.3483815491 -0.09699654579 -0.00045602646324771753 0.0007983295338901859
0.353703022 -0.09699654579 -0.0004745473351502966 0.0007941374367487149
0.3590244651 -0.09699654579 -0.0004927173517925367 0.0007886443504321532
0.364345938 -0.09699654579 -0.0005108800462414448 0.0007832275290328971
0.369667381 -0.09699654579 -0.0005290258637540998 0.0007778466686672682
0.3749888539 -0.09699654579 -0.0005473682618707701 0.0007724265592454424
0.380310297 -0.09699654579 -0.0005655557679462627 0.0007670028912186228
0.3856317699 -0.09699654579 -0.0005835766492985605 0.0007609039478105336
0.390953213 -0.09699654579 -0.0006015200125110412 0.0007545063870529979
0.3962746859 -0.09699654579 -0.0006195498286101566 0.0007481846800254483
0.4015961289 -0.09699654579 -0.0006374833231514417 0.0007417686508529045
0.4069176018 -0.09699654579 -0.0006554367026406629 0.0007353678994907181
0.4122390449 -0.09699654579 -0.0006738715792644397 0.0007286137829693031
0.4175605178 -0.09699654579 -0.0006930947431020396 0.0007212824247448485
0.4228819609 -0.09699654579 -0.000712064256082266 0.0007137132322404121
0.4282034338 -0.09699654579 -0.0007310540815242498 0.0007061262452588024
0.4335248768 -0.09699654579 -0.0007499729792270037 0.0006984979478176505
0.4388463497 -0.09699654579 -0.0007695815954650088 0.0006903624633921343
0.4441677928 -0.09699654579 -0.0007901686881157141 0.0006802363771566232
0.4494892657 -0.09699654579 -0.0008107891945379478 0.000670211695606434
0.4548107088 -0.09699654579 -0.0008313847321150718 0.0006601728316676843
0.4601321816 -0.09699654579 -0.0008518580703713773 0.0006500370550082166
0.4654536247 -0.09699654579 -0.0008725329547328986 0.0006385758146095412
0.4707750976 -0.09699654579 -0.0008939983928044017 0.0006252478412531129
0.4760965407 -0.09699654579 -0.0009158502379125535 0.0006120903376629874
0.4814180136 -0.09699654579 -0.0009373478716042723 0.0005987746016138006
0.4867394567 -0.09699654579 -0.000958603864389682 0.0005854074545327375
0.4920609295 -0.09699654579 -0.0009808374216943622 0.0005690987809353991
0.4973823726 -0.09699654579 -0.0010033647729812245 0.0005519886204968708
0.5027038455 -0.09699654579 -0.001025359830717717 0.0005346441082122687
0.5080252886 -0.09699654579 -0.00104762592701243 0.0005174783107206776
0.5133467317 -0.09699654579 -0.0010701818195565864 0.0004981797228097457
0.5186682343 -0.09699654579 -0.0010929435720252508 0.00047623090289879724
0.5239896774 -0.09699654579 -0.0011150058912255305 0.0004543613165341932
0.5293111205 -0.09699654579 -0.0011373670098825638 0.00043239787277448235
0.5346325636 -0.09699654579 -0.0011599466983510844 0.00040830937659737447
0.5399540663 -0.09699654579 -0.0011815765676566892 0.00038131323818829514
0.5452755094 -0.09699654579 -0.0012029307411372773 0.00035449053703318545
0.5505969524 -0.09699654579 -0.0012245875258540429 0.00032747744492646834
0.5559183955 -0.09699654579 -0.0012453609056879862 0.00029677073442085076
0.5612398982 -0.09699654579 -0.0012649918821798253 0.00026519364805263553
0.5665613413 -0.09699654579 -0.0012845089915665567 0.00023352016152122231
0.5718827844 -0.09699654579 -0.0013041408442596722 0.00019972874148464434
0.5772042274 -0.09699654579 -0.001321274665065955 0.00016362432256765582
0.5825257301 -0.09699654579 -0.0013384035383093554 0.00012751012622939494
0.5878471732 -0.09699654579 -0.0013551073356017419 8.944532228273358e-05
0.5931686163 -0.09699654579 -0.0013692179977760667 4.950710676613754e-05
0.5984900594 -0.09699654579 -0.0013835580459150788 8.957349835617405e-06
0.6038115621 -0.09699654579 -0.001395478867380788 -3.324442282239218e-05
0.6091330051 -0.09699654579 -0.0014059491199937017 -7.720104941568507e-05
0.6144544482 -0.09699654579 -0.0014154888109661685 -0.00012097363916651077
0.6197758913 -0.09699654579 -0.0014218853713584801 -0.00016682443368683413
0.625097394 -0.09699654579 -0.0014274797829369637 -0.00021273391004714075
0.6304188371 -0.09699654579 -0.0014307302115645684 -0.00025956287155158884
0.6357402802 -0.09699654579 -0.0014326006333455776 -0.0003070976517428124
0.6410617828 -0.09699654579 -0.001432071671717081 -0.0003536719452765231
0.6463832259 -0.09699654579 -0.0014294592054353485 -0.00040033376539511296
0.651704669 -0.09699654579 -0.00142484915177212 -0.00044665482845169445
0.6570261121 -0.09699654579 -0.001418193426262545 -0.0004912773366483913
0.6623476148 -0.09699654579 -0.0014103141349513931 -0.0005352204052960894
0.6676690578 -0.09699654579 -0.0014016710548433128 -0.0005783843402999786
0.6729905009 -0.09699654579 -0.001391533972620907 -0.0006197713262621229
0.678311944 -0.09699654579 -0.0013804217919861468 -0.0006597580029709168
0.6836334467 -0.09699654579 -0.0013693403096725943 -0.0006980963391064691
0.6889548898 -0.09699654579 -0.0013581600380497122 -0.0007344664881895416
0.6942763329 -0.09699654579 -0.0013474809290088738 -0.0007687354274551002
0.6995977759 -0.09699654579 -0.0013378277909271207 -0.0008014295045576916
0.7049192786 -0.09699654579 -0.001329283247050199 -0.0008327984727581972
0.7102407217 -0.09699654579 -0.0013227403152364567 -0.0008627526516657046
0.7155621648 -0.09699654579 -0.001318928999638119 -0.0008910944192906794
0.7208836079 -0.09699654579 -0.0013178607490289878 -0.0009182057107794765
0.7262051105 -0.09699654579 -0.0013198563887684774 -0.0009449922697827465
0.7315265536 -0.09699654579 -0.0013244617647849082 -0.0009715006544653503
0.7368479967 -0.09699654579 -0.0013345163927644087 -0.000998554972006181
0.7421694398 -0.09699654579 -0.0013489205109100393 -0.0010263451314384507
0.7474909425 -0.09699654579 -0.0013682447291774853 -0.0010555061445095169
0.7528123856 -0.09699654579 -0.0013925969927286502 -0.0010869598774730404
0.7581338286 -0.09699654579 -0.0014226736326969508 -0.001122189162516502
-0.3008363545 -0.09367749095 0.00016716507679700345 -0.0003701357630923341
-0.2955148816 -0.09367749095 0.00017044791612344214 -0.00037712068200307483
-0.2901934385 -0.09367749095 0.00017621332890762825 -0.00038347484076853365
-0.2848719656 -0.09367749095 0.0001788431095225341 -0.0003931488529477445
-0.2795505226 -0.09367749095 0.00018655103039534024 -0.0003984831203545439
-0.2742290497 -0.09367749095 0.00019334002384126882 -0.0004037946700807709
-0.2689076066 -0.09367749095 0.00020265897361592216 -0.00040989472419698705
-0.2635861337 -0.09367749095 0.00021419916405808338 -0.00041567172092512016
-0.2582646906 -0.09367749095 0.0002148764856836899 -0.00043077976667764596