VARIABLES = X,Y,phix,phiy
ZONE I=200,J=200,F=POINT 
-0.3008363545 -0.1003156006 -0.0004310533129165065 0.00013775861978835446
-0.2955148816 -0.1003156006 -0.0004370698327486459 0.00013431868807191875
-0.2901934385 -0.1003156006 -0.000444647105837715 0.0001323886801911021
-0.2848719656 -0.1003156006 -0.00045192827086995666 0.00012985243606861578
-0.2795505226 -0.1003156006 -0.00046046044657760914 0.0001259911475018719
-0.2742290497 -0.1003156006 -0.00047013532837459856 0.00012143879846872605
-0.2689076066 -0.1003156006 -0.00048025016939511967 0.00011606570021399533
-0.2635861337 -0.1003156006 -0.0004838788718962913 0.00011203888526932978
-0.2582646906 -0.1003156006 -0.0004843177493658951 0.00011006129410216271
-0.2529432178 -0.1003156006 -0.0004840109300761981 0.00010849638330923213
-0.2476217598 -0.1003156006 -0.0004823166828173437 0.00010615799524686892
-0.2423003018 -0.1003156006 -0.00048082792886186326 0.00010170045980417136
-0.2369788438 -0.1003156006 -0.0004787079868310415 9.717236341413034e-05
-0.2316573858 -0.1003156006 -0.0004765121232734789 9.254753013601638e-05
-0.2263359278 -0.1003156006 -0.0004741016082178796 8.613997115013113e-05
-0.2210144699 -0.1003156006 -0.0004750935889980768 7.946619012856003e-05
-0.2156930119 -0.1003156006 -0.0004769280458733117 7.306984017814642e-05
-0.2103715539 -0.1003156006 -0.0004796080424010788 6.621049182056555e-05
-0.2050500959 -0.1003156006 -0.0004776499642091416 6.017228167977535e-05
-0.1997286379 -0.1003156006 -0.0004769102389301076 5.489302848225095e-05
-0.19440718 -0.1003156006 -0.0004754008450020222 4.926632560059714e-05
-0.189085722 -0.1003156006 -0.00046899548217264496 4.3041756510814926e-05
-0.183764264 -0.1003156006 -0.00046076643276983807 3.648860170789811e-05
-0.178442806 -0.1003156006 -0.00045233905232051387 2.999589774302064e-05
-0.173121348 -0.1003156006 -0.00044366895073464713 2.449374158122422e-05
-0.16779989 -0.1003156006 -0.0004358178172070279 2.0050762138681632e-05
-0.1624784321 -0.1003156006 -0.0004273782987305725 1.5651260315935443e-05
-0.1571569741 -0.1003156006 -0.0004183102272542467 1.3527071804779185e-05
-0.1518355161 -0.1003156006 -0.00040850321367620076 1.3006610348230463e-05
-0.1465140581 -0.1003156006 -0.000398569414527235 1.2193917785127961e-05
-0.1411926001 -0.1003156006 -0.00038869050360293997 1.2875806159682595e-05
-0.1358711421 -0.1003156006 -0.0003812824022877343 1.6532246747129043e-05
-0.1305496842 -0.1003156006 -0.0003738592554142515 2.0190451742318647e-05
-0.1252282262 -0.1003156006 -0.00036628913306632554 2.4299481754847605e-05
-0.1199067682 -0.1003156006 -0.0003596007734977712 2.894272749223575e-05
-0.1145853102 -0.1003156006 -0.0003534608113175109 3.396279158410325e-05
-0.1092638522 -0.1003156006 -0.000347224506558481 3.9147530160259473e-05
-0.1039423943 -0.1003156006 -0.0003408336171330969 4.408967058971987e-05
-0.09862093627 -0.1003156006 -0.0003348823577916156 4.8950719275303974e-05
-0.09329947084 -0.1003156006 -0.00032877026507299056 5.3764975207975384e-05
-0.08797801286 -0.1003156006 -0.00032262661211309574 5.858007379282428e-05
-0.08265655488 -0.1003156006 -0.0003161761601778606 6.348434187450256e-05
-0.0773350969 -0.1003156006 -0.0003105782841492199 6.898649242108773e-05
-0.07201363891 -0.1003156006 -0.0003049483561104289 7.438928801848857e-05
-0.06669218093 -0.1003156006 -0.0002993346670409234 7.979087570557048e-05
-0.06137072667 -0.1003156006 -0.00029367094060141446 8.532070304239575e-05
-0.05604926869 -0.1003156006 -0.0002886486732027691 9.096217159591136e-05
-0.05072781071 -0.1003156006 -0.0002839964692037956 9.666286662164838e-05
-0.045406349 -0.1003156006 -0.00027933864857210907 0.00010230844358166613
-0.04008489102 -0.1003156006 -0.00027466724492749894 0.00010796583091912787
-0.03476343304 -0.1003156006 -0.0002699388606751881 0.00011364889165025369
-0.02944197692 -0.1003156006 -0.0002655710645652409 0.00011926662437475182
-0.02412051894 -0.1003156006 -0.00026120338784719257 0.0001248987349865632
-0.01879905909 -0.1003156006 -0.000256826549695306 0.00013055673061766567
-0.01347760204 -0.1003156006 -0.0002524475963711813 0.00013617617422256132
-0.00815614406 -0.1003156006 -0.000248283668941034 0.00014205898212232
-0.00283468538 -0.1003156006 -0.0002445303570948725 0.0001480568181985708
0.002486772602 -0.1003156006 -0.00024073719765091507 0.00015409782604647486
0.007808230817 -0.1003156006 -0.00023694224095684882 0.00016014744137202432
0.0131296888 -0.1003156006 -0.00023317330068535317 0.00016615197200352396
0.01845114678 -0.1003156006 -0.00022959691383478854 0.00017234686020201035
0.02377260476 -0.1003156006 -0.00022629043469127067 0.00017859488038931475
0.02909406275 -0.1003156006 -0.0002230000717674029 0.00018490107645440412
0.03441552073 -0.1003156006 -0.0002196987970283872 0.0001912077950585363
0.03973697871 -0.1003156006 -0.0002164110731212536 0.0001974646331724
0.04505843669 -0.1003156006 -0.00021341608392455298 0.0002037106365876376
0.05037989467 -0.1003156006 -0.0002111905880170066 0.00020973781917140043
0.05570135266 -0.1003156006 -0.00020901120494025026 0.0002157634219681198
0.06102281436 -0.1003156006 -0.00020685343257834056 0.00022181540076864978
0.06634426862 -0.1003156006 -0.00020463174478370505 0.00022782862586513512
0.0716657266 -0.1003156006 -0.0002023998291414619 0.00023384758125267606
0.07698718458 -0.1003156006 -0.0001997386971043255 0.00023893520335429905
0.08230864257 -0.1003156006 -0.00019713223442170761 0.00024390470660627073
0.08763010055 -0.1003156006 -0.00019452675608172494 0.0002488171568338576
0.09295155853 -0.1003156006 -0.00019190643359195627 0.00025376040904739324
0.09827301651 -0.1003156006 -0.00018929122110754036 0.00025874235399311787
0.1035944745 -0.1003156006 -0.00018629123152734005 0.0002638886378541366
0.1089159325 -0.1003156006 -0.00018267008854874555 0.0002691984120263156
0.1142373979 -0.1003156006 -0.0001790833938745744 0.00027450958050131307
0.1195588559 -0.1003156006 -0.00017544976073950922 0.00027976640650568624
0.1248803139 -0.1003156006 -0.00017183714993844443 0.000285027945138321
0.1302017719 -0.1003156006 -0.00016823142638519435 0.0002903234433798184
0.1355232298 -0.1003156006 -0.00016492624539844286 0.0002955851334540372
0.1408446878 -0.1003156006 -0.00016187060517970373 0.00030072704969523435
0.1461661458 -0.1003156006 -0.00015872954608928133 0.00030589968813772204
0.1514876038 -0.1003156006 -0.00015561967931893692 0.0003110716680905309
0.1568090618 -0.1003156006 -0.00015246514209307487 0.00031624272270470484
0.1621305197 -0.1003156006 -0.00014931416978323134 0.00032143153825353214
0.1674519777 -0.1003156006 -0.00014523920599858865 0.0003257140024724277
0.1727734357 -0.1003156006 -0.00014088058273633013 0.0003295646065071412
0.1780948937 -0.1003156006 -0.00013652057825210337 0.000333415935493535
0.1834163517 -0.1003156006 -0.00013217465676015137 0.00033726672712943383
0.1887378097 -0.1003156006 -0.0001277620662420486 0.0003411913540359492
0.1940592676 -0.1003156006 -0.00012338084188308988 0.000345325468178699
0.1993807256 -0.1003156006 -0.00011661471360969769 0.0003497828771031163
0.2047021836 -0.1003156006 -0.00010914261582468615 0.0003542914833686336
0.2100236416 -0.1003156006 -0.00010167885038264014 0.00035881164190498127
0.2153450996 -0.1003156006 -9.431345288286588e-05 0.0003635443661931522
0.2206665576 -0.1003156006 -8.693836722773452e-05 0.000368224278582882
0.2259880155 -0.1003156006 -7.960450611813433e-05 0.00037290589752531355
0.2313094735 -0.1003156006 -7.01445895136584e-05 0.0003796302955698203
0.2366309315 -0.1003156006 -6.032917615774114e-05 0.0003869544841545036
0.2419523895 -0.1003156006 -5.0638307016063246e-05 0.0003943131024786068
0.2472738475 -0.1003156006 -4.0954468404262596e-05 0.000401647283062666
0.2525953054 -0.1003156006 -3.1303601108433904e-05 0.0004088702385008458
0.2579167783 -0.1003156006 -2.1756395933984972e-05 0.00041615541973210284
0.2632382214 -0.1003156006 -1.2288764600979744e-05 0.0004264721758510008
0.2685596943 -0.1003156006 -2.7470860577104e-06 0.00043751535541509343
0.2738811374 -0.1003156006 6.911819402150019e-06 0.00044859194686916335
0.2792026103 -0.1003156006 1.6479291316219095e-05 0.00045963320855646044
0.2845240533 -0.1003156006 2.5754296012979873e-05 0.00047063050893947865
0.2898455262 -0.1003156006 3.501065496834343e-05 0.00048162706228317736
0.2951669693 -0.1003156006 4.282562361059972e-05 0.0004943254409354973
0.3004884422 -0.1003156006 5.0424856011019314e-05 0.0005072334218475544
0.3058098853 -0.1003156006 5.7862428525197826e-05 0.0005200507107068737
0.3111313581 -0.1003156006 6.525090892755255e-05 0.0005328687776513949
0.3164528012 -0.1003156006 7.267119529847528e-05 0.0005456868783084225
0.3217742741 -0.1003156006 8.012419267003354e-05 0.0005585157087230594
0.3270957172 -0.1003156006 8.694950117026598e-05 0.0005719194925248827
0.3324171901 -0.1003156006 9.378906375942658e-05 0.0005853054214396564
0.3377386332 -0.1003156006 0.0001006237586474159 0.0005986905487980989
0.343060106 -0.1003156006 0.00010746868163804583 0.0006120738623164047
0.3483815491 -0.1003156006 0.000114213312152967 0.0006254533754747927
0.353703022 -0.1003156006 0.00012087258668944069 0.0006392359629997753
0.3590244651 -0.1003156006 0.00012746530963986225 0.0006538535376879097
0.364345938 -0.1003156006 0.00013403503832828799 0.0006684692510839314
0.369667381 -0.1003156006 0.00014051621284467025 0.0006829817650979564
0.3749888539 -0.1003156006 0.00014702080708239805 0.0006975228767436511
0.380310297 -0.1003156006 0.000153522481099164 0.0007120821135779733
0.3856317699 -0.1003156006 0.0001593758102995206 0.0007270388654036236
0.390953213 -0.1003156006 0.00016507441693757209 0.0007420347616807902
0.3962746859 -0.1003156006 0.00017073469201504108 0.0007570264070388451
0.4015961289 -0.1003156006 0.00017645024956875526 0.0007720290414222492
0.4069176018 -0.1003156006 0.00018221143581370313 0.0007870269033782025
0.4122390449 -0.1003156006 0.00018800882725341234 0.0008019092813424567
0.4175605178 -0.1003156006 0.0001939188289030041 0.0008166249587756514
0.4228819609 -0.1003156006 0.00019981315567576784 0.0008312948388746556
0.4282034338 -0.1003156006 0.000205693676386905 0.0008459769714252347
0.4335248768 -0.1003156006 0.0002115702242488438 0.0008607755563980657
0.4388463497 -0.1003156006 0.00021778414351635922 0.0008756430031426184
0.4441677928 -0.1003156006 0.00022497536334771631 0.0008906113958116337
0.4494892657 -0.1003156006 0.0002321589096492158 0.000905617893380116
0.4548107088 -0.1003156006 0.00023925927015102202 0.0009207771999522694
0.4601321816 -0.1003156006 0.00024639724732300277 0.000935844536968309
0.4654536247 -0.1003156006 0.00025414274085922234 0.0009512727857195286
0.4707750976 -0.1003156006 0.0002627951020559243 0.0009673200364871541
0.4760965407 -0.1003156006 0.00027124433071176426 0.0009834976511687277
0.4814180136 -0.1003156006 0.0002797104744902368 0.0009996771342528853
0.4867394567 -0.1003156006 0.0002882495759674831 0.0010158158799369993
0.4920609295 -0.1003156006 0.00029757487854433325 0.0010328062077012182
0.4973823726 -0.1003156006 0.0003071057407444515 0.0010500892955309386
0.5027038455 -0.1003156006 0.0003166019260049505 0.0010673405674447606
0.5080252886 -0.1003156006 0.00032605360239816746 0.0010845953241513742
0.5133467317 -0.1003156006 0.00033597060024085094 0.0011023828121228024
0.5186682343 -0.1003156006 0.00034676985787346847 0.001120317153421699
0.5239896774 -0.1003156006 0.0003575389783014305 0.0011382375431879253
0.5293111205 -0.1003156006 0.00036827227058924887 0.0011562455443724245
0.5346325636 -0.1003156006 0.0003796831817826541 0.001174860598204624
0.5399540663 -0.1003156006 0.0003923822210453336 0.0011936365692299575
0.5452755094 -0.1003156006 0.0004051684220252994 0.0012122447942084413
0.5505969524 -0.1003156006 0.0004177590601437264 0.0012311834890327725
0.5559183955 -0.1003156006 0.00043220889762610377 0.0012512462746435587
0.5612398982 -0.1003156006 0.00044748407698563065 0.0012709869542725477
0.5665613413 -0.1003156006 0.00046276191573645976 0.0012908285873466491
0.5718827844 -0.1003156006 0.00047889238843252965 0.0013119069013991745
0.5772042274 -0.1003156006 0.0004971756364122934 0.0013332641732350364
0.5825257301 -0.1003156006 0.0005155199904838489 0.0013545232534185592
0.5878471732 -0.1003156006 0.0005349500061064362 0.001377136371557946
0.5931686163 -0.1003156006 0.0005565151216425352 0.0014002581502255453
0.5984900594 -0.1003156006 0.0005779073223833104 0.0014233580622262387
0.6038115621 -0.1003156006 0.0006021650813123863 0.001447889449647295
0.6091330051 -0.1003156006 0.000626798589552024 0.0014730879520009137
0.6144544482 -0.1003156006 0.0006538293145458204 0.001498688114565454
0.6197758913 -0.1003156006 0.0006824592265669003 0.001526042828472535
0.625097394 -0.1003156006 0.0007125039506479466 0.0015542003749431682
0.6304188371 -0.1003156006 0.0007457084265908235 0.0015838277375607717
0.6357402802 -0.1003156006 0.0007797085388183695 0.0016154672223171853
0.6410617828 -0.1003156006 0.0008167244645216364 0.001647909373223858
0.6463832259 -0.1003156006 0.0008559205945766614 0.001681969895225615
0.651704669 -0.1003156006 0.0008969932805096055 0.0017168480465557573
0.6570261121 -0.1003156006 0.000941200349568591 0.0017556164522535829
0.6623476148 -0.1003156006 0.0009885399873704262 0.001795899631858255
0.6676690578 -0.1003156006 0.001038744147323936 0.0018381759634357748
0.6729905009 -0.1003156006 0.0010938033893524604 0.0018849266573476014
0.678311944 -0.1003156006 0.0011512640273687032 0.001935270646905473
0.6836334467 -0.1003156006 0.0012127395870455335 0.0019885738491196943
0.6889548898 -0.1003156006 0.0012797478391309253 0.002046210241569479
0.6942763329 -0.1003156006 0.0013513932243600843 0.002109876490685823
0.6995977759 -0.1003156006 0.0014273876186757727 0.002179097974742337
0.7049192786 -0.1003156006 0.001507891610253497 0.0022544005210503094
0.7102407217 -0.1003156006 0.0015945546651898507 0.0023375040613620246
0.7155621648 -0.1003156006 0.0016870080735844378 0.0024312563290855697
0.7208836079 -0.1003156006 0.001783462773551747 0.002535589960640016
0.7262051105 -0.1003156006 0.0018848466162752122 0.002650403393266352
0.7315265536 -0.1003156006 0.0019918091230668633 0.002779874938048013
0.7368479967 -0.1003156006 0.0021042316970484574 0.0029293238363181633
0.7421694398 -0.1003156006 0.0022213550591126353 0.0030953054692499362
0.7474909425 -0.1003156006 0.002331323019773759 0.0032757459499861232
0.7528123856 -0.1003156006 0.00244704147819956 0.0034836079763066494
0.7581338286 -0.1003156006 0.0025612133677532047 0.0037148180689922537
-0.3008363545 -0.09699654579 -0.00042991606599873894 0.00014246261726994324
-0.2955148816 -0.09699654579 -0.0004356989370307927 0.00014042157944811577
-0.2901934385 -0.09699654579 -0.00044303931937491426 0.00013561185249006053
-0.2848719656 -0.09699654579 -0.00045087460686413824 0.0001323859642798503
-0.2795505226 -0.09699654579 -0.00046020344342586814 0.00012910391363325427
-0.2742290497 -0.09699654579 -0.00046972243775762767 0.0001243921116822933
-0.2689076066 -0.09699654579 -0.00048022256871529 0.00011886066899274485
-0.2635861337 -0.09699654579 -0.0004901579644295824 0.00011261724043512465
-0.2582646906 -0.09699654579 -0.0004914184573488477 0.00011102677908659164
-0.2529432178 -0.09699654579 -0.0004906697071794398 0.00010890406886764935
-0.2476217598 -0.09699654579 -0.00048790773747274047 0.0001065721182268912
-0.2423003018 -0.09699654579 -0.00048596436936853725 0.00010187606149156458
-0.2369788438 -0.09699654579 -0.0004848028031498132 9.76334918835904e-05
-0.2316573858 -0.09699654579 -0.0004819188722463154 9.268299245453768e-05
-0.2263359278 -0.09699654579 -0.00047901873307298356 8.712171757291242e-05
-0.2210144699 -0.09699654579 -0.00048031519331129724 7.970094703914489e-05
-0.2156930119 -0.09699654579 -0.0004826073152628453 7.251857900833805e-05
-0.2103715539 -0.09699654579 -0.00048662760239191034 6.528241887965621e-05
-0.2050500959 -0.09699654579 -0.00048707683052441624 5.845017636496121e-05
-0.1997286379 -0.09699654579 -0.00048550488622561735 5.28140957434288e-05
-0.19440718 -0.09699654579 -0.00048376218040277187 4.7072309206917496e-05
-0.189085722 -0.09699654579 -0.0004771437153004507 4.005222506616292e-05
-0.183764264 -0.09699654579 -0.0004683380131629835 3.401465521650346e-05
-0.178442806 -0.09699654579 -0.00045908630492098347 2.714625885622163e-05
-0.173121348 -0.09699654579 -0.00045013140935709937 2.1628615959402794e-05
-0.16779989 -0.09699654579 -0.000441428333556099 1.683999733675653e-05
-0.1624784321 -0.09699654579 -0.00043258864300974335 1.152364939363145e-05
-0.1571569741 -0.09699654579 -0.00042235774540360776 8.219363883295636e-06
-0.1518355161 -0.09699654579 -0.0004120698882617927 7.007068275274028e-06
-0.1465140581 -0.09699654579 -0.0004009987432702772 6.569447019440167e-06
-0.1411926001 -0.09699654579 -0.00039070345001538786 6.7835643602909914e-06
-0.1358711421 -0.09699654579 -0.000383087536797944 1.098210611897548e-05
-0.1305496842 -0.09699654579 -0.00037546940451092494 1.5232198741394289e-05
-0.1252282262 -0.09699654579 -0.00036758968215346423 1.9556988691575476e-05
-0.1199067682 -0.09699654579 -0.0003603067506793069 2.468056364624418e-05
-0.1145853102 -0.09699654579 -0.0003538453810468216 2.9763119730000043e-05
-0.1092638522 -0.09699654579 -0.0003473114988917653 3.4963815709910646e-05
-0.1039423943 -0.09699654579 -0.0003403973613729726 4.0102135681029735e-05
-0.09862093627 -0.09699654579 -0.000333932601898906 4.4945194330325693e-05
-0.09329947084 -0.09699654579 -0.00032740687497770664 4.98956609616497e-05
-0.08797801286 -0.09699654579 -0.0003207739396850167 5.491320618387874e-05
-0.08265655488 -0.09699654579 -0.0003140619676836067 5.9801722937575356e-05
-0.0773350969 -0.09699654579 -0.00030842184948039685 6.537289323444715e-05
-0.07201363891 -0.09699654579 -0.00030274131880931855 7.095631399007238e-05
-0.06669218093 -0.09699654579 -0.0002970127916936421 7.653655571446635e-05
-0.06137072667 -0.09699654579 -0.000291221101071068 8.214353437146363e-05
-0.05604926869 -0.09699654579 -0.000286078540354448 8.791566648430458e-05
-0.05072781071 -0.09699654579 -0.0002813050271158675 9.358680156987675e-05
-0.045406349 -0.09699654579 -0.000276519304383042 9.925803180909337e-05
-0.04008489102 -0.09699654579 -0.0002717333779375173 0.00010497406293475164
-0.03476343304 -0.09699654579 -0.0002668993587377853 0.0001107180998997736
-0.02944197692 -0.09699654579 -0.000262435057655534 0.00011638887204210432
-0.02412051894 -0.09699654579 -0.00025796975380795153 0.00012207622175043183
-0.01879905909 -0.09699654579 -0.000253495087983244 0.00012774286197332307
-0.01347760204 -0.09699654579 -0.000249009273449111 0.00013341755061527057
-0.00815614406 -0.09699654579 -0.0002448114351292273 0.00013939075040789653
-0.00283468538 -0.09699654579 -0.00024102494656499346 0.00014549398526514533
0.002486772602 -0.09699654579 -0.000237254437069625 0.00015161474774534186
0.007808230817 -0.09699654579 -0.0002334730897169198 0.00015774537962964303
0.0131296888 -0.09699654579 -0.00022970974395874355 0.00016385450913540444
0.01845114678 -0.09699654579 -0.00022613675603273635 0.00017016610723007857
0.02377260476 -0.09699654579 -0.00022282971718850085 0.00017653327439636298
0.02909406275 -0.09699654579 -0.00021956729928277152 0.00018291916720796625
0.03441552073 -0.09699654579 -0.0002162752281075583 0.000189317148054333
0.03973697871 -0.09699654579 -0.00021298194077824483 0.0001956820817895723
0.04505843669 -0.09699654579 -0.00021011034219398198 0.00020201440886481313
0.05037989467 -0.09699654579 -0.00020805053800505003 0.0002080782871517255
0.05570135266 -0.09699654579 -0.00020603147158448242 0.0002141203558899496
0.06102281436 -0.09699654579 -0.0002040605240677781 0.00022016992050884437
0.06634426862 -0.09699654579 -0.00020198656579041742 0.00022622832436869535
0.0716657266 -0.09699654579 -0.00019995215827965006 0.00023228590540659593
0.07698718458 -0.09699654579 -0.00019740931003354756 0.00023726926750243624
0.08230864257 -0.09699654579 -0.0001949595190751412 0.0002421465983441196
0.08763010055 -0.09699654579 -0.00019241496477668206 0.00024702929898414377
0.09295155853 -0.09699654579 -0.00018986039568981953 0.0002518833465131159
0.09827301651 -0.09699654579 -0.0001873545826111391 0.0002567746395400165
0.1035944745 -0.09699654579 -0.00018442419839116903 0.00026189149779079707
0.1089159325 -0.09699654579 -0.00018083347533893866 0.00026726660637787386
0.1142373979 -0.09699654579 -0.00017718003767821014 0.00027260131511743765
0.1195588559 -0.09699654579 -0.00017355528396416665 0.000277942471214689
0.1248803139 -0.09699654579 -0.00016990746263331123 0.00028328331411904507
0.1302017719 -0.09699654579 -0.00016626654392716233 0.0002886071626648365
0.1355232298 -0.09699654579 -0.00016308689049751072 0.0002938935165411443
0.1408446878 -0.09699654579 -0.00016009430477852948 0.00029903768356669505
0.1461661458 -0.09699654579 -0.0001570773094919127 0.0003042171153093959
0.1514876038 -0.09699654579 -0.00015416756073156405 0.0003093738373458729
0.1568090618 -0.09699654579 -0.00015126495684114635 0.0003145315235273701
0.1621305197 -0.09699654579 -0.00014824170778328504 0.0003196655088776738
0.1674519777 -0.09699654579 -0.00014422198855539652 0.0003236382387004535
0.1727734357 -0.09699654579 -0.000139838489315425 0.00032707614883291966
0.1780948937 -0.09699654579 -0.00013556056909648848 0.0003303774420436919
0.1834163517 -0.09699654579 -0.00013119484397148165 0.0003337181732374325
0.1887378097 -0.09699654579 -0.00012682360455821398 0.00033737507096610094
0.1940592676 -0.09699654579 -0.0001224121008571606 0.00034103233894260316
0.1993807256 -0.09699654579 -0.00011524062854645374 0.00034502252451627303
0.2047021836 -0.09699654579 -0.00010735717946666234 0.00034904603306581185
0.2100236416 -0.09699654579 -9.955844933642953e-05 0.0003533826656648002
0.2153450996 -0.09699654579 -9.184444597239315e-05 0.0003577707632647811
0.2206665576 -0.09699654579 -8.409712767754472e-05 0.00036215916431156953
0.2259880155 -0.09699654579 -7.630982785054051e-05 0.00036650573594458505
0.2313094735 -0.09699654579 -6.642601834126342e-05 0.0003732201412141679
0.2366309315 -0.09699654579 -5.621659572119773e-05 0.0003804750714099182
0.2419523895 -0.09699654579 -4.6006076091395974e-05 0.0003877271378789728
0.2472738475 -0.09699654579 -3.5804265122132295e-05 0.0003949811237433267
0.2525953054 -0.09699654579 -2.5739373692023535e-05 0.0004022591338413158
0.2579167783 -0.09699654579 -1.5936889194026842e-05 0.00040958811123159475
0.2632382214 -0.09699654579 -5.94019952905759e-06 0.0004202603496938602
0.2685596943 -0.09699654579 4.0168304287171244e-06 0.0004315923359390986
0.2738811374 -0.09699654579 1.3886528790330707e-05 0.0004428401167064029
0.2792026103 -0.09699654579 2.353189436921924e-05 0.0004540221628416739
0.2845240533 -0.09699654579 3.3214051546896096e-05 0.00046520228057968574
0.2898455262 -0.09699654579 4.2981199744946244e-05 0.00047643737763858573
0.2951669693 -0.09699654579 5.0932667405064394e-05 0.0004893950925132514
0.3004884422 -0.09699654579 5.855492808656284e-05 0.0005024175443614952
0.3058098853 -0.09699654579 6.617577579690084e-05 0.0005154024279531329
0.3111313581 -0.09699654579 7.384590133525504e-05 0.0005283848206830705
0.3164528012 -0.09699654579 8.147059927798592e-05 0.0005413111376802257
0.3217742741 -0.09699654579 8.891473233481061e-05 0.0005542403180320022
0.3270957172 -0.09699654579 9.575364752428486e-05 0.0005676175520610282
0.3324171901 -0.09699654579 0.00010257341451595278 0.000580996834426181
0.3377386332 -0.09699654579 0.00010938874213654443 0.0005943742348812962
0.343060106 -0.09699654579 0.00011616967830769584 0.0006077360884573815
0.3483815491 -0.09699654579 0.00012290280704762023 0.0006211193515476367
0.353703022 -0.09699654579 0.0001296074625099983 0.0006349937915324305
0.3590244651 -0.09699654579 0.00013620329970750322 0.0006497096990939673
0.364345938 -0.09699654579 0.0001426776702367578 0.0006643618885380842
0.369667381 -0.09699654579 0.00014916138106477991 0.0006790347900937369
0.3749888539 -0.09699654579 0.00015580886082453647 0.000693689289545745
0.380310297 -0.09699654579 0.00016241066764811216 0.0007082893707969663
0.3856317699 -0.09699654579 0.0001682301264660088 0.0007232640222020173
0.390953213 -0.09699654579 0.0001739062831103063 0.0007383205153005871
0.3962746859 -0.09699654579 0.00017955245404364698 0.0007534081655511815
0.4015961289 -0.09699654579 0.00018522955765253754 0.000768452349364942
0.4069176018 -0.09699654579 0.00019087449012059938 0.0007834721138737449
0.4122390449 -0.09699654579 0.00019656999750793596 0.0007983040750968926
0.4175605178 -0.09699654579 0.00020233568418563137 0.0008128338077317367
0.4228819609 -0.09699654579 0.00020813001145175486 0.0008274632154049191
0.4282034338 -0.09699654579 0.00021392917929400013 0.0008421299049009462
0.4335248768 -0.09699654579 0.00021977889433797437 0.000856760879556107
0.4388463497 -0.09699654579 0.00022596291442097735 0.0008714190640447656
0.4441677928 -0.09699654579 0.00023320348527213684 0.0008862297786091292
0.4494892657 -0.09699654579 0.00024047037420848864 0.0009010852968179626
0.4548107088 -0.09699654579 0.00024772752737419173 0.0009159224749369163
0.4601321816 -0.09699654579 0.0002549777935897864 0.0009307999245532176
0.4654536247 -0.09699654579 0.000262740097390579 0.0009462508457926954
0.4707750976 -0.09699654579 0.0002714827968885282 0.000962198129652661
0.4760965407 -0.09699654579 0.00028033926605593965 0.0009780615078050336
0.4814180136 -0.09699654579 0.00028909945948953536 0.0009940063870810642
0.4867394567 -0.09699654579 0.00029770117280188965 0.0010100618105765358
0.4920609295 -0.09699654579 0.0003072042107528093 0.0010269338179019491
0.4973823726 -0.09699654579 0.0003168979946590697 0.0010440020884070573
0.5027038455 -0.09699654579 0.0003265941180701891 0.0010611691098828962
0.5080252886 -0.09699654579 0.00033624084920809785 0.0010783043027082237
0.5133467317 -0.09699654579 0.0003465148539364689 0.0010956785236785303
0.5186682343 -0.09699654579 0.000357474001927373 0.0011133661433358954
0.5239896774 -0.09699654579 0.00036830274200651996 0.0011313054591479928
0.5293111205 -0.09699654579 0.0003792100768489373 0.001149119192723468
0.5346325636 -0.09699654579 0.0003910730400134117 0.0011670298124988466
0.5399540663 -0.09699654579 0.000403987268298214 0.0011854977112557333
0.5452755094 -0.09699654579 0.00041680281842004644 0.001204121846114996
0.5505969524 -0.09699654579 0.0004297195309895867 0.0012225828810314193
0.5559183955 -0.09699654579 0.0004446146014753303 0.001241589720045252
0.5612398982 -0.09699654579 0.0004599192853765469 0.0012612854562555225
0.5665613413 -0.09699654579 0.0004753363406879168 0.0012809547909823347
0.5718827844 -0.09699654579 0.0004920221274300786 0.0013006178445320047
0.5772042274 -0.09699654579 0.0005103950540686969 0.0013216606791330483
0.5825257301 -0.09699654579 0.0005287672846278178 0.0013427057494394446
0.5878471732 -0.09699654579 0.0005486361902594121 0.0013637504277780313
0.5931686163 -0.09699654579 0.0005703621668671175 0.0013864022375265636
0.5984900594 -0.09699654579 0.0005924126397192634 0.001408638143158424
0.6038115621 -0.09699654579 0.0006166883552987536 0.0014323541882893557
0.6091330051 -0.09699654579 0.0006426151682441813 0.0014563903919097938
0.6144544482 -0.09699654579 0.0006692037301241612 0.0014814587648704462
0.6197758913 -0.09699654579 0.0006991994681896433 0.0015078349024867006
0.625097394 -0.09699654579 0.0007297340881165744 0.0015349372816702656
0.6304188371 -0.09699654579 0.0007633926073846942 0.001563625384974777
0.6357402802 -0.09699654579 0.0007987107755850133 0.0015922222449147301
0.6410617828 -0.09699654579 0.0008357531474377565 0.0016235843607560827
0.6463832259 -0.09699654579 0.0008761346271552534 0.0016558748316045204
0.651704669 -0.09699654579 0.0009187427052101557 0.001689673483408423
0.6570261121 -0.09699654579 0.0009650318629650504 0.0017268064612421883
0.6623476148 -0.09699654579 0.0010136142233307893 0.0017657890635058525
0.6676690578 -0.09699654579 0.0010660200304571643 0.001806185145960644
0.6729905009 -0.09699654579 0.001122032362280122 0.001850229359280369
0.678311944 -0.09699654579 0.0011823707273894942 0.0018964608927060187
0.6836334467 -0.09699654579 0.0012458828102540373 0.0019461909850483584
0.6889548898 -0.09699654579 0.0013147863429686076 0.0020016002799727027
0.6942763329 -0.09699654579 0.0013894057616347332 0.0020620131397780426
0.6995977759 -0.09699654579 0.0014698949823658387 0.002126700088090054
0.7049192786 -0.09699654579 0.0015549523818413906 0.0021986900340807114
0.7102407217 -0.09699654579 0.001646241133564691 0.002278958978931913
0.7155621648 -0.09699654579 0.0017449382458829567 0.0023703061033815676
0.7208836079 -0.09699654579 0.0018513395913204883 0.0024705791342522127
0.7262051105 -0.09699654579 0.0019634036748056387 0.002583886032825513
0.7315265536 -0.09699654579 0.002077651276683529 0.002710443229366552
0.7368479967 -0.09699654579 0.002201036555075866 0.002853303882082316
0.7421694398 -0.09699654579 0.0023267827742822593 0.003017885904991292
0.7474909425 -0.09699654579 0.00245697045972406 0.0032001661571892724
0.7528123856 -0.09699654579 0.0025852274248957816 0.003408624615195923
0.7581338286 -0.09699654579 0.0027115797301977816 0.0036422683744273348
-0.3008363545 -0.09367749095 -0.00042944163683466294 0.00014791739719192896
-0.2955148816 -0.09367749095 -0.00043544855563125504 0.00014539599022316146
-0.2901934385 -0.09367749095 -0.0004409083638467914 0.00014091206384123304
-0.2848719656 -0.09367749095 -0.0004505969329015717 0.00013602190566881873
-0.2795505226 -0.09367749095 -0.0004592691295220115 0.0001323437838823696
-0.2742290497 -0.09367749095 -0.0004701371131517243 0.00012787769013461816
-0.2689076066 -0.09367749095 -0.00048104534602297035 0.00012234541135511563
-0.2635861337 -0.09367749095 -0.0004940799059626 0.00011622640671722077
-0.2582646906 -0.09367749095 -0.000497945321170077 0.00011143109927138075
-0.2529432178 -0.09367749095 -0.0004988895116742518 0.00010987999456482847