VARIABLES = X,Y,phix,phiy
ZONE I=200,J=200,F=POINT 
-0.3008363545 -0.1003156006 -7.92187590801904e-05 -0.0006823621387670949
-0.2955148816 -0.1003156006 -7.136245531989977e-05 -0.0006612465672309026
-0.2901934385 -0.1003156006 -6.781350668425702e-05 -0.0006451398641199829
-0.2848719656 -0.1003156006 -6.496381979172155e-05 -0.0006289452731202162
-0.2795505226 -0.1003156006 -6.202563632114e-05 -0.0006124240592201819
-0.2742290497 -0.1003156006 -6.012554308116075e-05 -0.0005960149245812886
-0.2689076066 -0.1003156006 -5.784357701412457e-05 -0.000579285940641714
-0.2635861337 -0.1003156006 -6.091485563969337e-05 -0.000555461258347059
-0.2582646906 -0.1003156006 -6.613626228095155e-05 -0.0005267531979216384
-0.2529432178 -0.1003156006 -7.1671510155379e-05 -0.0004957152322314295
-0.2476217598 -0.1003156006 -7.803253744288035e-05 -0.00046207349384878415
-0.2423003018 -0.1003156006 -8.056052860600256e-05 -0.00042703818544500237
-0.2369788438 -0.1003156006 -8.287568579894845e-05 -0.00039080777016603496
-0.2316573858 -0.1003156006 -8.470765951375376e-05 -0.0003506055638711644
-0.2263359278 -0.1003156006 -9.103425584339833e-05 -0.00030913518289227634
-0.2210144699 -0.1003156006 -0.00011596941570500978 -0.0002872043768669334
-0.2156930119 -0.1003156006 -0.00014313787282501031 -0.00026573215257746924
-0.2103715539 -0.1003156006 -0.00017539034364823382 -0.0002467576693774038
-0.2050500959 -0.1003156006 -0.00020595458964838952 -0.00023257479738058627
-0.1997286379 -0.1003156006 -0.00023733178166657567 -0.00021959009288423893
-0.19440718 -0.1003156006 -0.0002707935710250058 -0.00020826516528323386
-0.189085722 -0.1003156006 -0.0002860027947038071 -0.0001953132650467334
-0.183764264 -0.1003156006 -0.0002961377833405003 -0.00018388489909619714
-0.178442806 -0.1003156006 -0.00030657021658938124 -0.00017203062081933013
-0.173121348 -0.1003156006 -0.0003267913544915318 -0.00015920586262685058
-0.16779989 -0.1003156006 -0.0003497504320846424 -0.00014755025153542195
-0.1624784321 -0.1003156006 -0.0003732971138642659 -0.00013508930064353987
-0.1571569741 -0.1003156006 -0.00039611641250543407 -0.00012302919269517956
-0.1518355161 -0.1003156006 -0.00041786331179187935 -0.00011276092539428626
-0.1465140581 -0.1003156006 -0.0004394239385059741 -0.00010281905797810491
-0.1411926001 -0.1003156006 -0.00046174006748348075 -9.481171030158672e-05
-0.1358711421 -0.1003156006 -0.00048412511555205866 -9.013308302868908e-05
-0.1305496842 -0.1003156006 -0.0005065334300281335 -8.545445518262599e-05
-0.1252282262 -0.1003156006 -0.000529472322836217 -8.10680060979387e-05
-0.1199067682 -0.1003156006 -0.000551885671615787 -7.78978924989015e-05
-0.1145853102 -0.1003156006 -0.0005739818366170908 -7.516944873291142e-05
-0.1092638522 -0.1003156006 -0.0005967212834944639 -7.261437426038021e-05
-0.1039423943 -0.1003156006 -0.0006192814310316363 -7.002176380558968e-05
-0.09862093627 -0.1003156006 -0.0006400106316103401 -6.882454847145974e-05
-0.09329947084 -0.1003156006 -0.0006611729531868636 -6.771522386115143e-05
-0.08797801286 -0.1003156006 -0.0006823386576655079 -6.660557509216434e-05
-0.08265655488 -0.1003156006 -0.0007037500027645119 -6.575258039061197e-05
-0.0773350969 -0.1003156006 -0.0007227925712557352 -6.780505107781887e-05
-0.07201363891 -0.1003156006 -0.00074189198703853 -6.978258056564549e-05
-0.06669218093 -0.1003156006 -0.0007609229743879289 -7.175934340283353e-05
-0.06137072667 -0.1003156006 -0.000780136911188415 -7.39947166783615e-05
-0.05604926869 -0.1003156006 -0.0007971523324162512 -7.771998958767203e-05
-0.05072781071 -0.1003156006 -0.0008134544846671507 -8.171129175510702e-05
-0.045406349 -0.1003156006 -0.0008297495843496676 -8.55683604371992e-05
-0.04008489102 -0.1003156006 -0.000846150218052164 -8.964861010146405e-05
-0.03476343304 -0.1003156006 -0.0008618779985494464 -9.408652904922394e-05
-0.02944197692 -0.1003156006 -0.0008758845793707072 -9.907192152903642e-05
-0.02412051894 -0.1003156006 -0.0008899124253715164 -0.00010411958344856311
-0.01879905909 -0.1003156006 -0.0009039741800729991 -0.00010925356972009198
-0.01347760204 -0.1003156006 -0.0009180006123284031 -0.00011428893549805497
-0.00815614406 -0.1003156006 -0.0009308778300913119 -0.00011960315857664789
-0.00283468538 -0.1003156006 -0.0009427029781699345 -0.00012503038230751083
0.002486772602 -0.1003156006 -0.0009546104137052166 -0.0001305627329013931
0.007808230817 -0.1003156006 -0.0009664805241279311 -0.00013610678615511446
0.0131296888 -0.1003156006 -0.0009783441683551052 -0.0001415475055055827
0.01845114678 -0.1003156006 -0.0009900712527090827 -0.0001462373001232456
0.02377260476 -0.1003156006 -0.0010015891229628105 -0.00015027023746968778
0.02909406275 -0.1003156006 -0.001013181181411128 -0.0001543390540054233
0.03441552073 -0.1003156006 -0.0010247675461630293 -0.0001584082232938916
0.03973697871 -0.1003156006 -0.001036326820215355 -0.00016244831667526426
0.04505843669 -0.1003156006 -0.0010473420913923459 -0.00016639948400959593
0.05037989467 -0.1003156006 -0.0010578435745371212 -0.0001698372726166813
0.05570135266 -0.1003156006 -0.0010683713765255508 -0.00017326540541329297
0.06102281436 -0.1003156006 -0.00107887397381477 -0.00017668721085040137
0.06634426862 -0.1003156006 -0.0010894104252668817 -0.00018010323145911325
0.0716657266 -0.1003156006 -0.001099911871428529 -0.0001835360808193268
0.07698718458 -0.1003156006 -0.0011111931790483173 -0.00018789309175532657
0.08230864257 -0.1003156006 -0.0011224515829715007 -0.00019226741953121576
0.08763010055 -0.1003156006 -0.0011338687777539501 -0.0001966348348854507
0.09295155853 -0.1003156006 -0.0011451748637825137 -0.0002009940015460007
0.09827301651 -0.1003156006 -0.0011564225245272051 -0.00020536338935559016
0.1035944745 -0.1003156006 -0.0011670257527648582 -0.0002107887505178122
0.1089159325 -0.1003156006 -0.0011765162198971552 -0.00021817191752767628
0.1142373979 -0.1003156006 -0.0011860323556052014 -0.00022555505666433225
0.1195588559 -0.1003156006 -0.0011953836154451536 -0.00023256175167356036
0.1248803139 -0.1003156006 -0.0012048180111639926 -0.00023970232708465377
0.1302017719 -0.1003156006 -0.001214260158987499 -0.00024693273143847836
0.1355232298 -0.1003156006 -0.0012203812668681213 -0.0002531806963708356
0.1408446878 -0.1003156006 -0.0012241564415911557 -0.00025852934946254616
0.1461661458 -0.1003156006 -0.0012281852857879004 -0.00026370710605817127
0.1514876038 -0.1003156006 -0.0012322140279343444 -0.00026888643439239827
0.1568090618 -0.1003156006 -0.0012362260331044174 -0.00027406588710923556
0.1621305197 -0.1003156006 -0.0012403149779637377 -0.00027925661453101177
0.1674519777 -0.1003156006 -0.001245492519994394 -0.0002801059474779045
0.1727734357 -0.1003156006 -0.0012510256951227356 -0.0002790440891869614
0.1780948937 -0.1003156006 -0.0012565365706218904 -0.0002779829648480184
0.1834163517 -0.1003156006 -0.0012620669072372582 -0.0002769212306352387
0.1887378097 -0.1003156006 -0.001267681918872252 -0.00027605193749936387
0.1940592676 -0.1003156006 -0.0012733909458334408 -0.000275634899484547
0.1993807256 -0.1003156006 -0.001284356743669088 -0.00027598010746806147
0.2047021836 -0.1003156006 -0.0012969969334007164 -0.00027653060432475694
0.2100236416 -0.1003156006 -0.001309612582641674 -0.00027707072836606237
0.2153450996 -0.1003156006 -0.0013218958975885584 -0.0002780048286336398
0.2206665576 -0.1003156006 -0.0013342019866645859 -0.00027884847254969674
0.2259880155 -0.1003156006 -0.0013465527375873302 -0.0002796873117227508
0.2313094735 -0.1003156006 -0.001361071075887759 -0.00028529184840725164
0.2366309315 -0.1003156006 -0.001375748576204529 -0.0002920390370784019
0.2419523895 -0.1003156006 -0.0013901223999560018 -0.00029874032762862576
0.2472738475 -0.1003156006 -0.001404540922155367 -0.00030543917885238734
0.2525953054 -0.1003156006 -0.0014192368437927617 -0.00031205177890623404
0.2579167783 -0.1003156006 -0.0014336525358605997 -0.0003186556731593631
0.2632382214 -0.1003156006 -0.0014456742238779946 -0.00033013250845443564
0.2685596943 -0.1003156006 -0.0014573173402463618 -0.00034282947056324555
0.2738811374 -0.1003156006 -0.0014691116316274178 -0.00035571246185062843
0.2792026103 -0.1003156006 -0.0014807420031978968 -0.00036844497410211445
0.2845240533 -0.1003156006 -0.0014918803516768056 -0.0003808153145345761
0.2898455262 -0.1003156006 -0.0015029829090085767 -0.00039318959804990236
0.2951669693 -0.1003156006 -0.0015084108364700922 -0.0004080161853526663
0.3004884422 -0.1003156006 -0.0015129884203114875 -0.0004230945211617251
0.3058098853 -0.1003156006 -0.0015175854300749187 -0.0004375945552885263
0.3111313581 -0.1003156006 -0.0015221716042507813 -0.00045209779612964283
0.3164528012 -0.1003156006 -0.0015267362998808598 -0.00046659914142847244
0.3217742741 -0.1003156006 -0.0015313824846322442 -0.000481068250153672
0.3270957172 -0.1003156006 -0.001532900262197336 -0.0004933209723878516
0.3324171901 -0.1003156006 -0.0015343820255410575 -0.0005055843077936402
0.3377386332 -0.1003156006 -0.0015358691287383213 -0.0005178491556776519
0.343060106 -0.1003156006 -0.0015373614673829413 -0.0005301063885608965
0.3483815491 -0.1003156006 -0.001538882477590692 -0.0005422832315714126
0.353703022 -0.1003156006 -0.0015403777831750943 -0.0005552351387836649
0.3590244651 -0.1003156006 -0.0015418016815667663 -0.0005697719470477393
0.364345938 -0.1003156006 -0.0015432524185169888 -0.0005843030212975286
0.369667381 -0.1003156006 -0.0015441582732945924 -0.0005984459628812249
0.3749888539 -0.1003156006 -0.0015452199723155887 -0.0006126573528521959
0.380310297 -0.1003156006 -0.001546275533347638 -0.0006269633444571637
0.3856317699 -0.1003156006 -0.001542817590257703 -0.0006446312155222853
0.390953213 -0.1003156006 -0.00153767890388259 -0.000662249586146338
0.3962746859 -0.1003156006 -0.001532440194157076 -0.0006797870911583638
0.4015961289 -0.1003156006 -0.0015273140659951819 -0.0006973632976792197
0.4069176018 -0.1003156006 -0.0015221466983870535 -0.0007148918546809727
0.4122390449 -0.1003156006 -0.0015136157400356448 -0.0007307878577989844
0.4175605178 -0.1003156006 -0.0014999396342047927 -0.0007457690833727307
0.4228819609 -0.1003156006 -0.001486038580121142 -0.0007611022079980807
0.4282034338 -0.1003156006 -0.0014721487365104238 -0.0007763565976003483
0.4335248768 -0.1003156006 -0.0014588053076610276 -0.0007907346187133265
0.4388463497 -0.1003156006 -0.0014440371471287658 -0.000803968825787974
0.4441677928 -0.1003156006 -0.0014254229426053663 -0.0008138479069891718
0.4494892657 -0.1003156006 -0.0014070256932905841 -0.0008235972696067744
0.4548107088 -0.1003156006 -0.0013890730012988853 -0.0008329922842859016
0.4601321816 -0.1003156006 -0.0013707551915081093 -0.000842641854595217
0.4654536247 -0.1003156006 -0.0013515334901365095 -0.0008509712707218868
0.4707750976 -0.1003156006 -0.0013309442394150587 -0.0008568572303447187
0.4760965407 -0.1003156006 -0.0013105720757347697 -0.0008624666667414674
0.4814180136 -0.1003156006 -0.0012902144417245977 -0.000868075183200214
0.4867394567 -0.1003156006 -0.0012698790403149422 -0.0008736866521930963
0.4920609295 -0.1003156006 -0.0012472041292806112 -0.0008771649245654193
0.4973823726 -0.1003156006 -0.0012238291788193268 -0.0008799181891716702
0.5027038455 -0.1003156006 -0.001200465408685042 -0.0008826446092940147
0.5080252886 -0.1003156006 -0.0011771616125486049 -0.000885356579037246
0.5133467317 -0.1003156006 -0.0011529183250484482 -0.0008857716388149262
0.5186682343 -0.1003156006 -0.0011261049773683071 -0.0008843586219354904
0.5239896774 -0.1003156006 -0.001099121182012691 -0.0008830367740496737
0.5293111205 -0.1003156006 -0.0010725633146460296 -0.0008815162405605498
0.5346325636 -0.1003156006 -0.0010454931265345623 -0.0008777118905752067
0.5399540663 -0.1003156006 -0.001016476919763198 -0.0008715227237827852
0.5452755094 -0.1003156006 -0.0009869705014777324 -0.0008655119295368572
0.5505969524 -0.1003156006 -0.000958339011772376 -0.0008591995182246218
0.5559183955 -0.1003156006 -0.0009289956709809767 -0.0008496241204385088
0.5612398982 -0.1003156006 -0.0008978910784357005 -0.0008390663115539679
0.5665613413 -0.1003156006 -0.000867097943655594 -0.0008284978651876146
0.5718827844 -0.1003156006 -0.0008368224361109338 -0.0008161540588276111
0.5772042274 -0.1003156006 -0.0008048256209389183 -0.0008014696045127165
0.5825257301 -0.1003156006 -0.0007725876259104969 -0.0007867780084577169
0.5878471732 -0.1003156006 -0.0007409213788889793 -0.0007703622005215709
0.5931686163 -0.1003156006 -0.0007079540704175152 -0.0007516475426440528
0.5984900594 -0.1003156006 -0.0006749965862602064 -0.0007332266723236979
0.6038115621 -0.1003156006 -0.0006410697737510208 -0.0007119768240118013
0.6091330051 -0.1003156006 -0.0006072541251300845 -0.0006900985514926826
0.6144544482 -0.1003156006 -0.0005721157370575712 -0.0006664246476428115
0.6197758913 -0.1003156006 -0.0005372894132479847 -0.0006411148308900637
0.625097394 -0.1003156006 -0.0005017750788706334 -0.0006144729213380561
0.6304188371 -0.1003156006 -0.00046511484658322847 -0.0005857176507783984
0.6357402802 -0.1003156006 -0.0004292382957171829 -0.0005558637868123795
0.6410617828 -0.1003156006 -0.00039236470156712896 -0.0005242057220919784
0.6463832259 -0.1003156006 -0.00035513130737702727 -0.0004916230116929109
0.651704669 -0.1003156006 -0.0003171498931446718 -0.0004581023059305039
0.6570261121 -0.1003156006 -0.0002788692460778272 -0.0004224711016965498
0.6623476148 -0.1003156006 -0.00023923877581834854 -0.0003855521836587646
0.6676690578 -0.1003156006 -0.00019891755233335324 -0.00034775303327718
0.6729905009 -0.1003156006 -0.0001568735287081361 -0.0003076516629712114
0.678311944 -0.1003156006 -0.00011390745910250331 -0.00026614960138985233
0.6836334467 -0.1003156006 -6.914441271538013e-05 -0.00022341781484219432
0.6889548898 -0.1003156006 -2.1656065353088095e-05 -0.00017897554744135565
0.6942763329 -0.1003156006 2.8406617665193537e-05 -0.00013184593505597135
0.6995977759 -0.1003156006 8.10837355238056e-05 -8.28341184062491e-05
0.7049192786 -0.1003156006 0.00013654876136739584 -3.1766088517603716e-05
0.7102407217 -0.1003156006 0.00019644792531837667 2.2404223787512207e-05
0.7155621648 -0.1003156006 0.0002606334650119516 8.090768444436588e-05
0.7208836079 -0.1003156006 0.00032866423877922545 0.00014426377844111663
0.7262051105 -0.1003156006 0.00040143219566399126 0.00021240311227025478
0.7315265536 -0.1003156006 0.000479514188619826 0.00028676195400638703
0.7368479967 -0.1003156006 0.0005651855992547155 0.0003709787457557613
0.7421694398 -0.1003156006 0.0006566154916091287 0.00046267760525444003
0.7474909425 -0.1003156006 0.0007480166069913723 0.000563577826291909
0.7528123856 -0.1003156006 0.0008483110306734508 0.0006783970539031852
0.7581338286 -0.1003156006 0.0009539569910009393 0.0008061807391780379
-0.3008363545 -0.09699654579 -7.018518886900145e-05 -0.0006871307112287235
-0.2955148816 -0.09699654579 -6.070157216185634e-05 -0.0006661737812384243
-0.2901934385 -0.09699654579 -5.404081494963927e-05 -0.0006447393556667488
-0.2848719656 -0.09699654579 -5.111739758485229e-05 -0.0006283018283229818
-0.2795505226 -0.09699654579 -4.664311578151935e-05 -0.0006119460601020643
-0.2742290497 -0.09699654579 -4.3337043525566366e-05 -0.000595178480400887
-0.2689076066 -0.09699654579 -4.159509574813398e-05 -0.0005786637199749558
-0.2635861337 -0.09699654579 -4.0851714471183163e-05 -0.0005576750925810745
-0.2582646906 -0.09699654579 -4.474056697122255e-05 -0.0005299756871605541
-0.2529432178 -0.09699654579 -5.069738632178508e-05 -0.0004976032306339391
-0.2476217598 -0.09699654579 -5.7090973890359786e-05 -0.0004616798053856634
-0.2423003018 -0.09699654579 -6.159402414491805e-05 -0.00042269735984065926
-0.2369788438 -0.09699654579 -6.204898786308647e-05 -0.000385254063199313
-0.2316573858 -0.09699654579 -6.4984973688849e-05 -0.000342569392541485
-0.2263359278 -0.09699654579 -6.793319029979703e-05 -0.00029337760974956415
-0.2210144699 -0.09699654579 -9.107597092293562e-05 -0.0002667676757037651
-0.2156930119 -0.09699654579 -0.00012350260635240126 -0.00024756483469126405
-0.2103715539 -0.09699654579 -0.00015970482023809946 -0.00022960084033807617
-0.2050500959 -0.09699654579 -0.00019400617554169835 -0.00021582967387223192
-0.1997286379 -0.09699654579 -0.00022759495687985315 -0.0002045914676980877
-0.19440718 -0.09699654579 -0.0002624364502391968 -0.00019391513301877277
-0.189085722 -0.09699654579 -0.0002790855142801099 -0.0001824574416999896
-0.183764264 -0.09699654579 -0.0002890965012982857 -0.00016986136654235955
-0.178442806 -0.09699654579 -0.0002972897583007433 -0.000154776460860507
-0.173121348 -0.09699654579 -0.0003165130259721057 -0.00014159077741711794
-0.16779989 -0.09699654579 -0.0003408692084916217 -0.00012875481509157062
-0.1624784321 -0.09699654579 -0.00036642754616078327 -0.00011652002659566891
-0.1571569741 -0.09699654579 -0.0003907778679272998 -0.00010548342684129588
-0.1518355161 -0.09699654579 -0.00041220920155655267 -9.61642139126121e-05
-0.1465140581 -0.09699654579 -0.0004326866902315015 -8.750193985388474e-05
-0.1411926001 -0.09699654579 -0.0004537045809262935 -7.973577830457648e-05
-0.1358711421 -0.09699654579 -0.0004767434130651035 -7.541179734429043e-05
-0.1305496842 -0.09699654579 -0.0005001433268680035 -7.110939995333643e-05
-0.1252282262 -0.09699654579 -0.0005243863922510272 -6.690713739726674e-05
-0.1199067682 -0.09699654579 -0.0005484018866789923 -6.382548406649681e-05
-0.1145853102 -0.09699654579 -0.0005720037341883392 -6.10616412013312e-05
-0.1092638522 -0.09699654579 -0.0005956839758453123 -5.8472908415450486e-05
-0.1039423943 -0.09699654579 -0.0006196674041353191 -5.609827428130238e-05
-0.09862093627 -0.09699654579 -0.0006413084184543 -5.5128856737620664e-05
-0.09329947084 -0.09699654579 -0.0006631201808070116 -5.437337502117847e-05
-0.08797801286 -0.09699654579 -0.0006850714736939726 -5.380671188684217e-05
-0.08265655488 -0.09699654579 -0.0007069639702501608 -5.314199072542626e-05
-0.0773350969 -0.09699654579 -0.000726212392854323 -5.543995608277879e-05
-0.07201363891 -0.09699654579 -0.0007456107659551148 -5.7900266503922545e-05
-0.06669218093 -0.09699654579 -0.000765100273548944 -6.0358478385942215e-05
-0.06137072667 -0.09699654579 -0.0007847924911324651 -6.281284943608726e-05
-0.05604926869 -0.09699654579 -0.0008022074432853548 -6.6933866190549e-05
-0.05072781071 -0.09699654579 -0.0008188675957083375 -7.116656922605967e-05
-0.045406349 -0.09699654579 -0.0008355399504336671 -7.539839959485697e-05
-0.04008489102 -0.09699654579 -0.0008522481939638873 -7.978849291317717e-05
-0.03476343304 -0.09699654579 -0.0008682004865489437 -8.462077900844365e-05
-0.02944197692 -0.09699654579 -0.0008823445915965813 -8.99522391318455e-05
-0.02412051894 -0.09699654579 -0.0008964874300170081 -9.525481078191113e-05
-0.01879905909 -0.09699654579 -0.0009106405728811182 -0.00010057499529639885
-0.01347760204 -0.09699654579 -0.0009247800517610443 -0.0001059656236701552
-0.00815614406 -0.09699654579 -0.0009377436668046184 -0.00011156041296412695
-0.00283468538 -0.09699654579 -0.000949671597126087 -0.00011720475344959777
0.002486772602 -0.09699654579 -0.0009616101282524464 -0.00012288973951442495
0.007808230817 -0.09699654579 -0.0009735289310537859 -0.0001285819126485191
0.0131296888 -0.09699654579 -0.0009854648001171606 -0.00013424235925266168
0.01845114678 -0.09699654579 -0.0009972842627522514 -0.00013905597839062277
0.02377260476 -0.09699654579 -0.0010088728118323846 -0.00014315465556036415
0.02909406275 -0.09699654579 -0.0010205561887390027 -0.00014727135300201315
0.03441552073 -0.09699654579 -0.0010322269759643367 -0.0001513914692445341
0.03973697871 -0.09699654579 -0.0010438370489185176 -0.00015549741032911237
0.04505843669 -0.09699654579 -0.0010548724802404688 -0.00015946587678242357
0.05037989467 -0.09699654579 -0.0010653172707393672 -0.00016285530641240112
0.05570135266 -0.09699654579 -0.00107573487862098 -0.0001662385270919572
0.06102281436 -0.09699654579 -0.0010861201198724539 -0.00016958686820166976
0.06634426862 -0.09699654579 -0.0010965395815476626 -0.0001729749303528741
0.0716657266 -0.09699654579 -0.0011069629985455975 -0.00017636268871588343
0.07698718458 -0.09699654579 -0.0011185780423745967 -0.00018077011437061112
0.08230864257 -0.09699654579 -0.0011301326743940324 -0.00018518206248777303
0.08763010055 -0.09699654579 -0.0011417003342681093 -0.00018959993254517542
0.09295155853 -0.09699654579 -0.0011532613589287156 -0.00019397060975077525
0.09827301651 -0.09699654579 -0.0011648092254308798 -0.0001983798233950642
0.1035944745 -0.09699654579 -0.0011756212898527882 -0.00020413807225621615
0.1089159325 -0.09699654579 -0.0011853150702732457 -0.0002122059750421637
0.1142373979 -0.09699654579 -0.0011949814848022425 -0.00022002993249630929
0.1195588559 -0.09699654579 -0.0012045461633405263 -0.00022767213308468167
0.1248803139 -0.09699654579 -0.0012140917447792314 -0.00023531367859320736
0.1302017719 -0.09699654579 -0.001223744544207678 -0.0002431114832701036
0.1355232298 -0.09699654579 -0.0012293311969242238 -0.0002498126587996822
0.1408446878 -0.09699654579 -0.0012327698256859685 -0.0002553705336944641
0.1461661458 -0.09699654579 -0.0012361811327087444 -0.0002609413127719242
0.1514876038 -0.09699654579 -0.0012395902186745798 -0.00026650713047909034
0.1568090618 -0.09699654579 -0.001243025757670972 -0.00027207267647809787
0.1621305197 -0.09699654579 -0.0012466609214994181 -0.00027749679862977534
0.1674519777 -0.09699654579 -0.0012513921435992898 -0.0002777551543577954
0.1727734357 -0.09699654579 -0.0012564741515731731 -0.0002760881755146188
0.1780948937 -0.09699654579 -0.0012614334624801808 -0.0002742399277736714
0.1834163517 -0.09699654579 -0.0012664345229845496 -0.00027243832847401216
0.1887378097 -0.09699654579 -0.0012716752833038538 -0.0002710496287359122
0.1940592676 -0.09699654579 -0.0012769147921875695 -0.0002696617352858376
0.1993807256 -0.09699654579 -0.0012884858991733627 -0.0002691620056697635
0.2047021836 -0.09699654579 -0.0013016849562532038 -0.00026886793449411723
0.2100236416 -0.09699654579 -0.0013145422191518862 -0.0002689096760205924
0.2153450996 -0.09699654579 -0.0013272975485048748 -0.00026903820174864614
0.2206665576 -0.09699654579 -0.0013400588927641745 -0.00026916573112325095
0.2259880155 -0.09699654579 -0.0013529227356222126 -0.00026925626307456235
0.2313094735 -0.09699654579 -0.0013679122788764148 -0.00027491320529036766
0.2366309315 -0.09699654579 -0.0013833560347105446 -0.00028196825287954636
0.2419523895 -0.09699654579 -0.0013987780301287101 -0.0002890274129809811
0.2472738475 -0.09699654579 -0.0014142205391197555 -0.00029608133693932465
0.2525953054 -0.09699654579 -0.001429313171598605 -0.000302966285022348
0.2579167783 -0.09699654579 -0.0014440035263324502 -0.00030977060931379805
0.2632382214 -0.09699654579 -0.0014565045761864295 -0.00032218353600141033
0.2685596943 -0.09699654579 -0.0014685538805166054 -0.00033569338298457355
0.2738811374 -0.09699654579 -0.0014803699053965494 -0.00034888484369825204
0.2792026103 -0.09699654579 -0.0014917855164184297 -0.00036169789569019163
0.2845240533 -0.09699654579 -0.0015033502577029843 -0.00037458070695023686
0.2898455262 -0.09699654579 -0.0015150046695782608 -0.00038764808503055685
0.2951669693 -0.09699654579 -0.0015198729136620885 -0.0004030787475921251
0.3004884422 -0.09699654579 -0.0015241425671729872 -0.00041843790003946556
0.3058098853 -0.09699654579 -0.0015286556023852988 -0.0004338667514657947
0.3111313581 -0.09699654579 -0.0015331727360299021 -0.0004492985706117305
0.3164528012 -0.09699654579 -0.0015377744717331038 -0.00046448547182458753
0.3217742741 -0.09699654579 -0.0015421329724531199 -0.0004791601390857485
0.3270957172 -0.09699654579 -0.0015433659947086207 -0.0004914972429332011
0.3324171901 -0.09699654579 -0.0015446113970023054 -0.000503834745261409
0.3377386332 -0.09699654579 -0.0015459007277498216 -0.0005161448147779858
0.343060106 -0.09699654579 -0.0015472078585434168 -0.0005284300145091286
0.3483815491 -0.09699654579 -0.0015484874841726463 -0.0005407723551301792
0.353703022 -0.09699654579 -0.0015500911415187073 -0.000554119612762665
0.3590244651 -0.09699654579 -0.001552098476369561 -0.0005691279229687157
0.364345938 -0.09699654579 -0.0015536350751142256 -0.0005839497740636129
0.369667381 -0.09699654579 -0.0015551874367890361 -0.0005987643979894721
0.3749888539 -0.09699654579 -0.0015569406524599389 -0.0006134847822730312
0.380310297 -0.09699654579 -0.0015583973969983949 -0.0006279656349745959
0.3856317699 -0.09699654579 -0.0015547435550791482 -0.0006457939299044235
0.390953213 -0.09699654579 -0.001549876075028979 -0.0006646421884162416
0.3962746859 -0.09699654579 -0.00154501158570047 -0.0006838998888364642
0.4015961289 -0.09699654579 -0.001540063230697041 -0.0007024275388122474
0.4069176018 -0.09699654579 -0.0015349529570473615 -0.0007205011906992953
0.4122390449 -0.09699654579 -0.001525750015233259 -0.0007378250355030197
0.4175605178 -0.09699654579 -0.0015110949175388957 -0.0007540480720677206
0.4228819609 -0.09699654579 -0.0014969821934603222 -0.0007695176788021365
0.4282034338 -0.09699654579 -0.0014829638704162598 -0.0007847694320319609
0.4335248768 -0.09699654579 -0.0014689402484702402 -0.0008000599431637396
0.4388463497 -0.09699654579 -0.0014531186546902582 -0.0008142537414165021
0.4441677928 -0.09699654579 -0.001434089198185415 -0.0008243673626783486
0.4494892657 -0.09699654579 -0.0014150748129797923 -0.0008345580070320363
0.4548107088 -0.09699654579 -0.0013960617544402317 -0.0008447373172736775
0.4601321816 -0.09699654579 -0.001377265862763419 -0.0008547852149526301
0.4654536247 -0.09699654579 -0.001357989991157029 -0.0008630279843298498
0.4707750976 -0.09699654579 -0.0013372573719083616 -0.0008691546664742534
0.4760965407 -0.09699654579 -0.001316212055442524 -0.0008755658087869488
0.4814180136 -0.09699654579 -0.0012954661582914703 -0.0008817093035488492
0.4867394567 -0.09699654579 -0.0012748356170910631 -0.0008876220715224489
0.4920609295 -0.09699654579 -0.0012516103986832982 -0.0008915056494992497
0.4973823726 -0.09699654579 -0.0012276982316540776 -0.0008948089789209937
0.5027038455 -0.09699654579 -0.0012042423035082623 -0.0008976796602446922
0.5080252886 -0.09699654579 -0.0011804779628218581 -0.0009007737817488927
0.5133467317 -0.09699654579 -0.0011548440242381498 -0.0009021463863189862
0.5186682343 -0.09699654579 -0.0011272712652918024 -0.0009012074520555739
0.5239896774 -0.09699654579 -0.0011002300206546956 -0.0008998260549123603
0.5293111205 -0.09699654579 -0.0010730065743390423 -0.0008986217676891868
0.5346325636 -0.09699654579 -0.0010441450630162819 -0.0008957210000952289
0.5399540663 -0.09699654579 -0.0010144075926128524 -0.0008897407508230512
0.5452755094 -0.09699654579 -0.000984843074719923 -0.0008836869761410894
0.5505969524 -0.09699654579 -0.000955134951380237 -0.000877697524622173
0.5559183955 -0.09699654579 -0.0009238280623551553 -0.0008686890634592688
0.5612398982 -0.09699654579 -0.0008926534039664812 -0.0008581949792545844
0.5665613413 -0.09699654579 -0.0008615748447461588 -0.0008477017542289153
0.5718827844 -0.09699654579 -0.0008291092028695174 -0.0008359464820318672
0.5772042274 -0.09699654579 -0.0007968029712360823 -0.0008214240803901998
0.5825257301 -0.09699654579 -0.0007645167924092005 -0.0008069029585228706
0.5878471732 -0.09699654579 -0.0007308854550221744 -0.000791117877541777
0.5931686163 -0.09699654579 -0.0006974254177554241 -0.0007727721742845045
0.5984900594 -0.09699654579 -0.0006633432951740222 -0.0007543967887097417
0.6038115621 -0.09699654579 -0.0006286520005165528 -0.0007335431932476309
0.6091330051 -0.09699654579 -0.0005933741813526441 -0.0007114444060256713
0.6144544482 -0.09699654579 -0.0005581287733587502 -0.0006883130466521564
0.6197758913 -0.09699654579 -0.0005218964504286219 -0.0006627539460103303
0.625097394 -0.09699654579 -0.00048585082921758443 -0.0006366325088499771
0.6304188371 -0.09699654579 -0.00044864998515708803 -0.0006078388141375908
0.6357402802 -0.09699654579 -0.0004108053224239319 -0.000578742893965643
0.6410617828 -0.09699654579 -0.0003736989102183382 -0.0005480173005023516
0.6463832259 -0.09699654579 -0.0003350383804079526 -0.0005156286219114788
0.651704669 -0.09699654579 -0.00029619539072126005 -0.00048233415872579266
0.6570261121 -0.09699654579 -0.0002565639854221155 -0.0004468813901253111
0.6623476148 -0.09699654579 -0.00021637977977848277 -0.0004105147866977496
0.6676690578 -0.09699654579 -0.0001749585230945405 -0.0003726417497263595
0.6729905009 -0.09699654579 -0.00013246909199758533 -0.00033372725389389964
0.678311944 -0.09699654579 -8.826805926570786e-05 -0.00029390092380368534
0.6836334467 -0.09699654579 -4.263386383750097e-05 -0.0002526589935598028
0.6889548898 -0.09699654579 5.237363392261327e-06 -0.0002094603816850464
0.6942763329 -0.09699654579 5.647490846552688e-05 -0.00016426838367456629
0.6995977759 -0.09699654579 0.00011092015476615173 -0.00011775405269555515
0.7049192786 -0.09699654579 0.00016798267986369448 -6.877711651682194e-05
0.7102407217 -0.09699654579 0.0002292483768121846 -1.6678790103970814e-05
0.7155621648 -0.09699654579 0.00029610718885944 3.9666360052837774e-05
0.7208836079 -0.09699654579 0.000368665896702241 9.928256891877003e-05
0.7262051105 -0.09699654579 0.0004463296674981713 0.00016426042790860262
0.7315265536 -0.09699654579 0.0005283663521144481 0.00023510791037125453
0.7368479967 -0.09699654579 0.0006181834506021559 0.0003135042901342459
0.7421694398 -0.09699654579 0.0007138508346910056 0.0004026551764339642
0.7474909425 -0.09699654579 0.0008163419408668238 0.0005002261604634832
0.7528123856 -0.09699654579 0.0009240732185081831 0.0006124455868298372
0.7581338286 -0.09699654579 0.0010366853956977578 0.0007381854175753231
-0.3008363545 -0.09367749095 -6.06207557900074e-05 -0.0006927006227224359
-0.2955148816 -0.09367749095 -5.112418516349644e-05 -0.0006716634402676587
-0.2901934385 -0.09367749095 -4.214841912049483e-05 -0.000647640734484013
-0.2848719656 -0.09367749095 -3.47525041424133e-05 -0.0006278215839751799
-0.2795505226 -0.09367749095 -3.10568634382103e-05 -0.0006114875405393508