VARIABLES = X,Y,phix,phiy
ZONE I=200,J=200,F=POINT 
-0.3008363545 -0.1003156006 -0.00027730758177240165 0.0005739843235523918
-0.2955148816 -0.1003156006 -0.00028821173287827523 0.0005586973579279738
-0.2901934385 -0.1003156006 -0.0002935636004344241 0.0005471981054802047
-0.2848719656 -0.1003156006 -0.00029832264542880015 0.0005356543421525657
-0.2795505226 -0.1003156006 -0.00030238828923358213 0.0005236257921276163
-0.2742290497 -0.1003156006 -0.0003052430117811097 0.0005117583883990177
-0.2689076066 -0.1003156006 -0.000308323453954335 0.0004996034328996237
-0.2635861337 -0.1003156006 -0.000309445817551806 0.0004823582592040658
-0.2582646906 -0.1003156006 -0.00030864520882135384 0.0004624721040023872
-0.2529432178 -0.1003156006 -0.0003076504953698944 0.0004413703357196959
-0.2476217598 -0.1003156006 -0.0003066776158670301 0.0004183180623038984
-0.2423003018 -0.1003156006 -0.00030976184298195126 0.0003944857710876962
-0.2369788438 -0.1003156006 -0.0003124843061008629 0.0003686780292479493
-0.2316573858 -0.1003156006 -0.00031561019783236694 0.0003394902500571542
-0.2263359278 -0.1003156006 -0.00031496755954879275 0.0003080840633892036
-0.2210144699 -0.1003156006 -0.00029957961820179933 0.0002853210398821574
-0.2156930119 -0.1003156006 -0.00028244707025904035 0.00026219475062064994
-0.2103715539 -0.1003156006 -0.0002610263454299505 0.00023935663749862903
-0.2050500959 -0.1003156006 -0.00024091746547005922 0.00022409107799280754
-0.1997286379 -0.1003156006 -0.00022036047851443314 0.00021138252594373345
-0.19440718 -0.1003156006 -0.00019719240756035895 0.00020193409030013675
-0.189085722 -0.1003156006 -0.00018591110512255557 0.0001914211887079995
-0.183764264 -0.1003156006 -0.0001768794109389516 0.00018015862914036449
-0.178442806 -0.1003156006 -0.00016802186960341176 0.00016811644675199968
-0.173121348 -0.1003156006 -0.000153068801146528 0.00015732305120546832
-0.16779989 -0.1003156006 -0.00013691594441398323 0.00014785935624308085
-0.1624784321 -0.1003156006 -0.0001193664306910496 0.00013756000040726133
-0.1571569741 -0.1003156006 -0.00010260819756159667 0.00012822480174705167
-0.1518355161 -0.1003156006 -8.698879489332063e-05 0.00012034356039560324
-0.1465140581 -0.1003156006 -7.151503809067395e-05 0.00011256615003147172
-0.1411926001 -0.1003156006 -5.545133369989246e-05 0.00010600502143977453
-0.1358711421 -0.1003156006 -3.9346006491774334e-05 0.00010185340826216335
-0.1305496842 -0.1003156006 -2.3242367829236188e-05 9.769862503891552e-05
-0.1252282262 -0.1003156006 -6.927746529674549e-06 9.38079464661421e-05
-0.1199067682 -0.1003156006 8.864681989185548e-06 9.031558833463034e-05
-0.1145853102 -0.1003156006 2.4394318739516125e-05 8.708953000954658e-05
-0.1092638522 -0.1003156006 4.022492703721944e-05 8.393419232261198e-05
-0.1039423943 -0.1003156006 5.600535335288948e-05 8.070911933258291e-05
-0.09862093627 -0.1003156006 7.098952498236171e-05 7.82752442994594e-05
-0.09329947084 -0.1003156006 8.632037831238431e-05 7.587273149498715e-05
-0.08797801286 -0.1003156006 0.00010160863512837531 7.347031063746811e-05
-0.08265655488 -0.1003156006 0.00011713073124980975 7.120055435839976e-05
-0.0773350969 -0.1003156006 0.00013147436215807368 7.138504887346873e-05
-0.07201363891 -0.1003156006 0.00014581021139358974 7.151159725955339e-05
-0.06669218093 -0.1003156006 0.0001601454995045061 7.163923160796116e-05
-0.06137072667 -0.1003156006 0.00017462080518206442 7.193615141718764e-05
-0.05604926869 -0.1003156006 0.0001876002115512894 7.356138092019191e-05
-0.05072781071 -0.1003156006 0.00020006384068874274 7.549582536245358e-05
-0.045406349 -0.1003156006 0.00021252532046091247 7.73430042465212e-05
-0.04008489102 -0.1003156006 0.00022507503130587443 7.9319647055873e-05
-0.03476343304 -0.1003156006 0.0002372879376683191 8.148141033669926e-05
-0.02944197692 -0.1003156006 0.0002485197789033688 8.397259830709513e-05
-0.02412051894 -0.1003156006 0.00025978367912574417 8.64948854815032e-05
-0.01879905909 -0.1003156006 0.0002710828318279171 8.905861062614866e-05
-0.01347760204 -0.1003156006 0.0002823264135072255 9.157160739693839e-05
-0.00815614406 -0.1003156006 0.00029317667466719714 9.450285012799034e-05
-0.00283468538 -0.1003156006 0.00030359766835884094 9.772849553629361e-05
0.002486772602 -0.1003156006 0.0003141199586244149 0.0001010108468410038
0.007808230817 -0.1003156006 0.0003246865412866788 0.00010430237537080027
0.0131296888 -0.1003156006 0.00033510645368628895 0.00010753393486431419
0.01845114678 -0.1003156006 0.00034532750343797017 0.0001110104506821069
0.02377260476 -0.1003156006 0.0003552751773477152 0.00011465641938492063
0.02909406275 -0.1003156006 0.0003652970308420143 0.00011837255549564952
0.03441552073 -0.1003156006 0.0003753226286966856 0.0001220884289435477
0.03973697871 -0.1003156006 0.0003852823833450188 0.0001257440799217851
0.04505843669 -0.1003156006 0.00039440623187433877 0.0001294064615467395
0.05037989467 -0.1003156006 0.00040245818832716887 0.0001328831890560659
0.05570135266 -0.1003156006 0.00041044658485318776 0.000136390413362253
0.06102281436 -0.1003156006 0.0004184631996772259 0.00013990069952692636
0.06634426862 -0.1003156006 0.00042647309982081385 0.00014337111739925134
0.0716657266 -0.1003156006 0.00043452254511232085 0.0001468340011299766
0.07698718458 -0.1003156006 0.0004433722009949067 0.00015004462293959214
0.08230864257 -0.1003156006 0.0004521959376075776 0.00015320474320446476
0.08763010055 -0.1003156006 0.00046106411080567016 0.0001563241128815552
0.09295155853 -0.1003156006 0.0004699372951810644 0.00015947054948605409
0.09827301651 -0.1003156006 0.0004787770206029023 0.00016264848284119825
0.1035944745 -0.1003156006 0.0004874099643525642 0.00016666587967461384
0.1089159325 -0.1003156006 0.0004959411582936192 0.0001722994632016696
0.1142373979 -0.1003156006 0.0005044852883081412 0.00017793157342035882
0.1195588559 -0.1003156006 0.0005129257054652366 0.00018334993797825515
0.1248803139 -0.1003156006 0.0005213963777843075 0.0001888422013482222
0.1302017719 -0.1003156006 0.0005298615117171661 0.00019438939798967236
0.1355232298 -0.1003156006 0.0005362189317108999 0.00019978896531901158
0.1408446878 -0.1003156006 0.0005410541826227826 0.00020497877733263557
0.1461661458 -0.1003156006 0.0005460410310213553 0.00021006078401243029
0.1514876038 -0.1003156006 0.0005510370136070362 0.00021513993101073166
0.1568090618 -0.1003156006 0.0005560300820582005 0.00022022062766277866
0.1621305197 -0.1003156006 0.0005610364044298546 0.00022531023298485452
0.1674519777 -0.1003156006 0.0005667355785257167 0.00022762196310412307
0.1727734357 -0.1003156006 0.0005725001426517009 0.0002287253271070264
0.1780948937 -0.1003156006 0.0005783438861494917 0.0002298312770287783
0.1834163517 -0.1003156006 0.0005842036180969719 0.00023093533191348363
0.1887378097 -0.1003156006 0.0005901022326841415 0.00023216074301917226
0.1940592676 -0.1003156006 0.0005961044392656014 0.00023367534503970034
0.1993807256 -0.1003156006 0.0006057351719667622 0.00023579254150429276
0.2047021836 -0.1003156006 0.0006165471755987562 0.0002380720350011926
0.2100236416 -0.1003156006 0.0006273562791744562 0.0002403504635399768
0.2153450996 -0.1003156006 0.0006378915407213779 0.0002429397143698174
0.2206665576 -0.1003156006 0.0006485170691597425 0.0002454441273656906
0.2259880155 -0.1003156006 0.0006591130527218713 0.000247946369233008
0.2313094735 -0.1003156006 0.0006721349163813446 0.0002541768040541673
0.2366309315 -0.1003156006 0.0006853584668615605 0.0002614491489710185
0.2419523895 -0.1003156006 0.0006984180528645766 0.00026872166119974847
0.2472738475 -0.1003156006 0.0007114878365770395 0.0002759869268489103
0.2525953054 -0.1003156006 0.0007246751926378673 0.00028318946224608786
0.2579167783 -0.1003156006 0.0007375535990333191 0.0002904259112937173
0.2632382214 -0.1003156006 0.0007483646109010063 0.0003031015572557903
0.2685596943 -0.1003156006 0.0007588121144256771 0.0003172016111660862
0.2738811374 -0.1003156006 0.000769446347787155 0.0003315359701618479
0.2792026103 -0.1003156006 0.0007799112377480397 0.00034567910224216997
0.2845240533 -0.1003156006 0.0007898902514841653 0.0003593601646099336
0.2898455262 -0.1003156006 0.0007998440477532239 0.00037303830835000727
0.2951669693 -0.1003156006 0.0008031715056645169 0.0003885634750348166
0.3004884422 -0.1003156006 0.0008054297795826044 0.0004042640195125809
0.3058098853 -0.1003156006 0.0008078270162591992 0.0004193406290149642
0.3111313581 -0.1003156006 0.0008102651830167677 0.0004344170784034219
0.3164528012 -0.1003156006 0.0008126613531131607 0.00044949997059491007
0.3217742741 -0.1003156006 0.0008150412976555373 0.0004645180016790479
0.3270957172 -0.1003156006 0.0008140608603928099 0.0004757576597342488
0.3324171901 -0.1003156006 0.0008130289565277357 0.00048699079861434666
0.3377386332 -0.1003156006 0.0008120560224570961 0.0004982257024975172
0.343060106 -0.1003156006 0.0008110114654448607 0.0005094607750841529
0.3483815491 -0.1003156006 0.0008102532882672463 0.0005206408126309489
0.353703022 -0.1003156006 0.0008094693128322794 0.0005319645975733242
0.3590244651 -0.1003156006 0.0008089000235307293 0.0005435505087173814
0.364345938 -0.1003156006 0.0008083244646243493 0.0005551392315985849
0.369667381 -0.1003156006 0.0008075182405717175 0.0005664536726993461
0.3749888539 -0.1003156006 0.0008068009680145284 0.00057782823979488
0.380310297 -0.1003156006 0.0008060547637739964 0.000589247061187085
0.3856317699 -0.1003156006 0.0008024665917639383 0.0006013437023980561
0.390953213 -0.1003156006 0.0007981452881041913 0.0006131095739498708
0.3962746859 -0.1003156006 0.0007937845710273877 0.0006248214672020768
0.4015961289 -0.1003156006 0.0007893856242737469 0.0006365652448243913
0.4069176018 -0.1003156006 0.0007850188722245473 0.0006483115463793139
0.4122390449 -0.1003156006 0.0007795285507516053 0.0006585175048839638
0.4175605178 -0.1003156006 0.0007719204245737459 0.000667162591494171
0.4228819609 -0.1003156006 0.0007641736225147345 0.0006758631539208395
0.4282034338 -0.1003156006 0.0007564442200207681 0.000684561517734144
0.4335248768 -0.1003156006 0.0007491264432213523 0.0006930590542273798
0.4388463497 -0.1003156006 0.0007415877952850821 0.0007009340216698341
0.4441677928 -0.1003156006 0.0007336168853650962 0.0007070152115635611
0.4494892657 -0.1003156006 0.0007256266791575423 0.0007130776571740213
0.4548107088 -0.1003156006 0.0007178082630087783 0.0007190923270780055
0.4601321816 -0.1003156006 0.0007099243806561714 0.0007251391374791083
0.4654536247 -0.1003156006 0.0007018120505960634 0.0007308542967365361
0.4707750976 -0.1003156006 0.0006934285155581928 0.0007358861209592057
0.4760965407 -0.1003156006 0.0006851232463750795 0.0007407466722169785
0.4814180136 -0.1003156006 0.0006767932176725192 0.0007456113285920496
0.4867394567 -0.1003156006 0.0006685377059071527 0.0007504595983445879
0.4920609295 -0.1003156006 0.0006586524745422268 0.0007541694335523871
0.4973823726 -0.1003156006 0.0006484363336363017 0.0007574645303831876
0.5027038455 -0.1003156006 0.0006382215827010092 0.0007607625147963042
0.5080252886 -0.1003156006 0.0006280560099013949 0.0007640583150970768
0.5133467317 -0.1003156006 0.0006176295718241496 0.0007656277405042786
0.5186682343 -0.1003156006 0.0006057774981247182 0.0007655158697649705
0.5239896774 -0.1003156006 0.0005938626901377851 0.0007654155234067979
0.5293111205 -0.1003156006 0.0005822144536430612 0.0007652854328642289
0.5346325636 -0.1003156006 0.0005710706721583933 0.000763604604842313
0.5399540663 -0.1003156006 0.0005595228042465146 0.0007598925399426502
0.5452755094 -0.1003156006 0.0005476762535853654 0.0007561241689654391
0.5505969524 -0.1003156006 0.0005363450030363887 0.0007524641244524372
0.5559183955 -0.1003156006 0.0005260832865808618 0.0007466879190463876
0.5612398982 -0.1003156006 0.0005151092166944179 0.0007397874631008531
0.5665613413 -0.1003156006 0.0005042986213387447 0.0007329640697235698
0.5718827844 -0.1003156006 0.0004946022237811298 0.0007253214354572706
0.5772042274 -0.1003156006 0.00048486391023520815 0.0007156262754841984
0.5825257301 -0.1003156006 0.00047507036849888724 0.0007058600319767741
0.5878471732 -0.1003156006 0.0004663032975743267 0.0006952135173021213
0.5931686163 -0.1003156006 0.0004580035297061123 0.0006825732754880056
0.5984900594 -0.1003156006 0.000449459956150162 0.0006701979330157831
0.6038115621 -0.1003156006 0.00044196510477925895 0.0006554886977231417
0.6091330051 -0.1003156006 0.00043501185867085383 0.0006404939270449149
0.6144544482 -0.1003156006 0.0004283851015149213 0.0006235519673090254
0.6197758913 -0.1003156006 0.00042314287690123917 0.0006056439178633003
0.625097394 -0.1003156006 0.00041860348512754445 0.0005865664952967825
0.6304188371 -0.1003156006 0.0004150712531166671 0.0005652561371445693
0.6357402802 -0.1003156006 0.0004132458311996016 0.0005436873701284463
0.6410617828 -0.1003156006 0.00041266968273814825 0.0005200512631198071
0.6463832259 -0.1003156006 0.00041328046478169986 0.000495105006878089
0.651704669 -0.1003156006 0.00041475993004226467 0.00046890904717096244
0.6570261121 -0.1003156006 0.00041951925444513416 0.000441405025795039
0.6623476148 -0.1003156006 0.0004257534497954781 0.0004121540465507731
0.6676690578 -0.1003156006 0.0004338129654578583 0.000381652800720549
0.6729905009 -0.1003156006 0.0004459064610892747 0.0003492155755728052
0.678311944 -0.1003156006 0.00046045845917064456 0.00031637950580017777
0.6836334467 -0.1003156006 0.0004775738595713932 0.0002820617438049014
0.6889548898 -0.1003156006 0.0004986742740187193 0.00024601624576417415
0.6942763329 -0.1003156006 0.0005236178423299702 0.00020905889423475501
0.6995977759 -0.1003156006 0.0005520946072935191 0.0001714795686114591
0.7049192786 -0.1003156006 0.0005848847383459294 0.00013340973496335571
0.7102407217 -0.1003156006 0.0006228581394130446 9.469347765668945e-05
0.7155621648 -0.1003156006 0.0006667757156591802 5.6385973456572746e-05
0.7208836079 -0.1003156006 0.0007160017694863596 1.900793228444304e-05
0.7262051105 -0.1003156006 0.0007707133907089776 -1.7840356737051644e-05
0.7315265536 -0.1003156006 0.0008323839059169253 -5.277438534911003e-05
0.7368479967 -0.1003156006 0.0009028035604300244 -8.525192335845434e-05
0.7421694398 -0.1003156006 0.0009802845201132288 -0.00011529704248489016
0.7474909425 -0.1003156006 0.0010611336035135496 -0.00013970819576445274
0.7528123856 -0.1003156006 0.001152705661744281 -0.00015918347406465485
0.7581338286 -0.1003156006 0.001251831533843995 -0.0001729315082242998
-0.3008363545 -0.09699654579 -0.00028379984751888146 0.0005792849000172889
-0.2955148816 -0.09699654579 -0.0002957488351400134 0.000564218276116204
-0.2901934385 -0.09699654579 -0.0003060226444864622 0.0005492025360593351
-0.2848719656 -0.09699654579 -0.0003105810305412721 0.0005373830149554689
-0.2795505226 -0.09699654579 -0.00031591742022691845 0.0005254645077789813
-0.2742290497 -0.09699654579 -0.00031965406265539666 0.000513169479937743
-0.2689076066 -0.09699654579 -0.0003223150816162803 0.0005012670542526491
-0.2635861337 -0.09699654579 -0.0003252591215634614 0.0004869103116077508
-0.2582646906 -0.09699654579 -0.0003254239645592958 0.00046796618255198514
-0.2529432178 -0.09699654579 -0.0003247386224029407 0.0004457764487809794
-0.2476217598 -0.09699654579 -0.0003240482596730478 0.0004212892815524076
-0.2423003018 -0.09699654579 -0.000325293909610287 0.0003945006061902357
-0.2369788438 -0.09699654579 -0.0003298932703503748 0.00036780987782220796
-0.2316573858 -0.09699654579 -0.00033185787491409047 0.00033643940414263717
-0.2263359278 -0.09699654579 -0.0003342538978999552 0.00030018467084314145
-0.2210144699 -0.09699654579 -0.00032067413179229644 0.0002745870263485318
-0.2156930119 -0.09699654579 -0.00029929455276312826 0.0002514395193666363
-0.2103715539 -0.09699654579 -0.00027579825716786985 0.00022876202592198177
-0.2050500959 -0.09699654579 -0.0002534387229554479 0.00021412950734462475
-0.1997286379 -0.09699654579 -0.00023012746681619432 0.0002048366599533259
-0.19440718 -0.09699654579 -0.00020634639681307642 0.0001960321413091605
-0.189085722 -0.09699654579 -0.00019375049089743766 0.00018427102510351056
-0.183764264 -0.09699654579 -0.00018492084944745285 0.00017176872531132447
-0.178442806 -0.09699654579 -0.00017618287858924282 0.00015838904952010898
-0.173121348 -0.09699654579 -0.00016139484905083675 0.0001471357723859939
-0.16779989 -0.09699654579 -0.00014310006854365695 0.0001362780212686383
-0.1624784321 -0.09699654579 -0.00012412488596684246 0.00012529730352169518
-0.1571569741 -0.09699654579 -0.0001057815186423838 0.00011606543044194711
-0.1518355161 -0.09699654579 -9.03744134946099e-05 0.00010858179988777271
-0.1465140581 -0.09699654579 -7.520891328002252e-05 0.00010166447994563716
-0.1411926001 -0.09699654579 -5.983404400407147e-05 9.531723324150667e-05
-0.1358711421 -0.09699654579 -4.345242171270675e-05 9.148027556453202e-05
-0.1305496842 -0.09699654579 -2.6919415964246745e-05 8.76963418093626e-05
-0.1252282262 -0.09699654579 -9.995908926177972e-06 8.396703012621965e-05
-0.1199067682 -0.09699654579 6.675373791761863e-06 8.054993449917678e-05
-0.1145853102 -0.09699654579 2.291305306117633e-05 7.726512523796092e-05
-0.1092638522 -0.09699654579 3.92229994456605e-05 7.406436006063445e-05
-0.1039423943 -0.09699654579 5.576263744495147e-05 7.089475469088323e-05
-0.09862093627 -0.09699654579 7.135348665292138e-05 6.853315099353184e-05
-0.09329947084 -0.09699654579 8.71461131346836e-05 6.627108272293755e-05
-0.08797801286 -0.09699654579 0.00010305296899623308 6.408676782571544e-05
-0.08265655488 -0.09699654579 0.00011888281431062923 6.185177497717433e-05
-0.0773350969 -0.09699654579 0.000133413020072201 6.218793761396579e-05
-0.07201363891 -0.09699654579 0.00014804295509445324 6.262954932314575e-05
-0.06669218093 -0.09699654579 0.00016268865747249132 6.30648740186072e-05
-0.06137072667 -0.09699654579 0.00017742925243887143 6.349953066613909e-05
-0.05604926869 -0.09699654579 0.00019067213542537832 6.537113353039102e-05
-0.05072781071 -0.09699654579 0.0002033624790425945 6.743785461194658e-05
-0.045406349 -0.09699654579 0.00021605986329060965 6.950507412368654e-05
-0.04008489102 -0.09699654579 0.0002287925575160285 7.167715968082503e-05
-0.03476343304 -0.09699654579 0.00024116670346252617 7.406346576257072e-05
-0.02944197692 -0.09699654579 0.00025259739490772503 7.668892929161909e-05
-0.02412051894 -0.09699654579 0.0002639583741543088 7.931355353998821e-05
-0.01879905909 -0.09699654579 0.00027535555850262443 8.193213061995657e-05
-0.01347760204 -0.09699654579 0.0002867707850004678 8.45723142669125e-05
-0.00815614406 -0.09699654579 0.00029781293122620715 8.76350485548465e-05
-0.00283468538 -0.09699654579 0.00030846255396626605 9.098553976461909e-05
0.002486772602 -0.09699654579 0.0003191445475524353 9.435843249148656e-05
0.007808230817 -0.09699654579 0.0003298296910251232 9.773331162539465e-05
0.0131296888 -0.09699654579 0.00034047842390613054 0.00010109169323135554
0.01845114678 -0.09699654579 0.0003508750493091031 0.00010472152170426852
0.02377260476 -0.09699654579 0.00036095488522673537 0.00010851854947800733
0.02909406275 -0.09699654579 0.0003711445689032097 0.00011236445944587152
0.03441552073 -0.09699654579 0.0003813271717989278 0.00011622051861648417
0.03973697871 -0.09699654579 0.0003914061603570777 0.00012002522905460566
0.04505843669 -0.09699654579 0.0004005604460990495 0.00012381552247345355
0.05037989467 -0.09699654579 0.00040842284074308564 0.00012736181418428758
0.05570135266 -0.09699654579 0.00041630860466594156 0.00013091038326855693
0.06102281436 -0.09699654579 0.0004241463628576913 0.00013445981397857012
0.06634426862 -0.09699654579 0.0004320320193008891 0.00013799485352233677
0.0716657266 -0.09699654579 0.0004399312023141669 0.00014152881134930686
0.07698718458 -0.09699654579 0.0004488987741135866 0.00014464629602966545
0.08230864257 -0.09699654579 0.0004579143689955342 0.00014770990332128338
0.08763010055 -0.09699654579 0.0004669138599670933 0.00015078717709832455
0.09295155853 -0.09699654579 0.00047585765718670354 0.00015385499853185836
0.09827301651 -0.09699654579 0.0004848075863134599 0.00015693977176402404
0.1035944745 -0.09699654579 0.0004936528639485245 0.00016108683399232988
0.1089159325 -0.09699654579 0.0005024247503989135 0.0001671108418177283
0.1142373979 -0.09699654579 0.0005111219667474408 0.0001729932335932487
0.1195588559 -0.09699654579 0.0005196781610269178 0.00017877907347191375
0.1248803139 -0.09699654579 0.0005283027631395778 0.00018456499705733816
0.1302017719 -0.09699654579 0.0005369809142153896 0.00019042965355548375
0.1355232298 -0.09699654579 0.0005430056674498017 0.00019614746253939533
0.1408446878 -0.09699654579 0.0005475983340511359 0.00020148745315518813
0.1461661458 -0.09699654579 0.0005521769251323869 0.00020683606378417844
0.1514876038 -0.09699654579 0.0005567588943219743 0.00021218698757494533
0.1568090618 -0.09699654579 0.0005613426833440584 0.0002175359567186823
0.1621305197 -0.09699654579 0.0005661220134737438 0.00022277836016601008
0.1674519777 -0.09699654579 0.0005713734824015163 0.0002246993075682826
0.1727734357 -0.09699654579 0.0005768550894679622 0.00022538057010942954
0.1780948937 -0.09699654579 0.000582181571348517 0.00022591281116195752
0.1834163517 -0.09699654579 0.0005875895401953136 0.00022649030010709164
0.1887378097 -0.09699654579 0.0005931593772245085 0.0002273738867571751
0.1940592676 -0.09699654579 0.0005987711280863789 0.000228256879396217
0.1993807256 -0.09699654579 0.0006087021978538899 0.0002297679306435261
0.2047021836 -0.09699654579 0.0006198253574873715 0.00023141389795904653
0.2100236416 -0.09699654579 0.0006307135171109804 0.00023337299510452594
0.2153450996 -0.09699654579 0.0006415311565057653 0.0002353903142310758
0.2206665576 -0.09699654579 0.0006523416763393043 0.00023740864117399388
0.2259880155 -0.09699654579 0.0006632237910357796 0.0002393971991427607
0.2313094735 -0.09699654579 0.0006766665274274723 0.0002456551821239652
0.2366309315 -0.09699654579 0.0006906928820858795 0.00025297219985175246
0.2419523895 -0.09699654579 0.0007046904130596954 0.00026028985970633604
0.2472738475 -0.09699654579 0.0007186956306213525 0.00026760739137685595
0.2525953054 -0.09699654579 0.0007323816173950033 0.0002748969494153838
0.2579167783 -0.09699654579 0.0007456533983373602 0.00028218251261480777
0.2632382214 -0.09699654579 0.0007571068330963245 0.0002959176753389212
0.2685596943 -0.09699654579 0.0007680910487626293 0.0003109741212622383
0.2738811374 -0.09699654579 0.0007788776864608994 0.00032569931856495056
0.2792026103 -0.09699654579 0.0007892540184600183 0.0003400338335768636
0.2845240533 -0.09699654579 0.0007997447330249543 0.000354435580567807
0.2898455262 -0.09699654579 0.0008104093650470374 0.0003690376887409854
0.2951669693 -0.09699654579 0.0008130933899666626 0.00038529384299892857
0.3004884422 -0.09699654579 0.0008150699820235189 0.000401338401572021
0.3058098853 -0.09699654579 0.0008172024602261016 0.0004174144132820417
0.3111313581 -0.09699654579 0.0008193627797978215 0.00043348743386153544
0.3164528012 -0.09699654579 0.0008215977778301914 0.0004493017831398653
0.3217742741 -0.09699654579 0.0008237153623674333 0.00046447187847302825
0.3270957172 -0.09699654579 0.000822421720283593 0.0004757055832565042
0.3324171901 -0.09699654579 0.0008211310028315966 0.0004869402899376614
0.3377386332 -0.09699654579 0.0008199857776441133 0.000498181937337005
0.343060106 -0.09699654579 0.0008188362679421908 0.0005094133849085831
0.3483815491 -0.09699654579 0.0008176982092036118 0.000520662612489574
0.353703022 -0.09699654579 0.0008169120464220749 0.0005322036500255796
0.3590244651 -0.09699654579 0.0008165975558653821 0.0005441307262467536
0.364345938 -0.09699654579 0.000816049212036457 0.0005558886303291783
0.369667381 -0.09699654579 0.0008156157191384018 0.0005676488915781881
0.3749888539 -0.09699654579 0.0008151258935896034 0.0005793658259733225
0.380310297 -0.09699654579 0.0008145519214802502 0.0005909335111361486
0.3856317699 -0.09699654579 0.0008108867050756815 0.0006030560006413228
0.390953213 -0.09699654579 0.0008063508861775886 0.0006154230550049469
0.3962746859 -0.09699654579 0.0008018241295381256 0.0006279644043707836
0.4015961289 -0.09699654579 0.0007972999941141659 0.0006401775910967168
0.4069176018 -0.09699654579 0.0007928662605654021 0.0006521497274739625
0.4122390449 -0.09699654579 0.0007868300122020096 0.0006627914841574206
0.4175605178 -0.09699654579 0.0007786193242818608 0.0006716239780016184
0.4228819609 -0.09699654579 0.0007707615103043926 0.0006803382083545281
0.4282034338 -0.09699654579 0.0007630111995623422 0.0006889966070747593
0.4335248768 -0.09699654579 0.0007552750230129168 0.0006976632959235302
0.4388463497 -0.09699654579 0.0007472195822635799 0.0007056456674935184
0.4441677928 -0.09699654579 0.0007390516982101855 0.0007117386060181305
0.4494892657 -0.09699654579 0.0007309238357391599 0.0007178555889134623
0.4548107088 -0.09699654579 0.0007227877579567424 0.0007239715843869183
0.4601321816 -0.09699654579 0.0007146783252119132 0.0007300678841130889
0.4654536247 -0.09699654579 0.0007065520312578212 0.0007357622540891457
0.4707750976 -0.09699654579 0.0006981718663258091 0.0007409380014301076
0.4760965407 -0.09699654579 0.0006897233648506684 0.0007462800822662742
0.4814180136 -0.09699654579 0.0006813022903216817 0.0007514664936530309
0.4867394567 -0.09699654579 0.0006729184914382265 0.0007565090031927829
0.4920609295 -0.09699654579 0.0006627239436757527 0.0007604355510293456
0.4973823726 -0.09699654579 0.0006519686999620579 0.0007640551016034995
0.5027038455 -0.09699654579 0.0006415964256090958 0.0007674396668205263
0.5080252886 -0.09699654579 0.0006310205298230341 0.000770939784812297
0.5133467317 -0.09699654579 0.0006195243897043481 0.0007728641024648751
0.5186682343 -0.09699654579 0.0006070562962352336 0.0007728357309685867
0.5239896774 -0.09699654579 0.0005950861301695336 0.0007726867492980829
0.5293111205 -0.09699654579 0.0005829447443073456 0.0007725900586314977
0.5346325636 -0.09699654579 0.0005704268599452673 0.0007709130209682684
0.5399540663 -0.09699654579 0.0005583483345054523 0.0007670681459601066
0.5452755094 -0.09699654579 0.0005465194448113148 0.0007632738964006119
0.5505969524 -0.09699654579 0.0005344377902717132 0.0007594269675169462
0.5559183955 -0.09699654579 0.000522736500068321 0.0007532825925027726
0.5612398982 -0.09699654579 0.000511731339523408 0.0007463959210941512
0.5665613413 -0.09699654579 0.0005008070338186069 0.0007394998089232148
0.5718827844 -0.09699654579 0.0004895340126559001 0.0007313697097286012
0.5772042274 -0.09699654579 0.00047954986451072913 0.0007216345076936967
0.5825257301 -0.09699654579 0.0004695721150893198 0.0007119042555460578
0.5878471732 -0.09699654579 0.00045937084333950637 0.0007008167768194469
0.5931686163 -0.09699654579 0.00045048692353377105 0.0006881529907538409
0.5984900594 -0.09699654579 0.0004412288095617557 0.0006751830619532631
0.6038115621 -0.09699654579 0.0004331094139363603 0.0006603645943032984
0.6091330051 -0.09699654579 0.00042513856728874683 0.000644230479973539
0.6144544482 -0.09699654579 0.0004180619024404138 0.0006276000617804803
0.6197758913 -0.09699654579 0.00041212581475093046 0.0006085394804761076
0.625097394 -0.09699654579 0.00040679143114151316 0.0005891852726033165
0.6304188371 -0.09699654579 0.00040277029771877687 0.0005674344390670878
0.6357402802 -0.09699654579 0.00039884203953082295 0.0005444896535778554
0.6410617828 -0.09699654579 0.0003973980858377223 0.0005207615166262546
0.6463832259 -0.09699654579 0.0003968822434009034 0.0004946230333344129
0.651704669 -0.09699654579 0.00039781688355842803 0.00046730529949856635
0.6570261121 -0.09699654579 0.0004017872012734869 0.00043810382377707576
0.6623476148 -0.09699654579 0.0004073801245133551 0.0004078894412894483
0.6676690578 -0.09699654579 0.00041500815401139876 0.000375565287009892
0.6729905009 -0.09699654579 0.00042557937750114665 0.00034199596017511096
0.678311944 -0.09699654579 0.0004384875746237248 0.00030653754027400306
0.6836334467 -0.09699654579 0.0004542308655487642 0.00027016256344859275
0.6889548898 -0.09699654579 0.00047446559554982975 0.0002326202035495854
0.6942763329 -0.09699654579 0.0004984293104991406 0.00019323010896412683
0.6995977759 -0.09699654579 0.0005263022031294498 0.0001521430629410283
0.7049192786 -0.09699654579 0.0005588018845727024 0.00011122761246817715
0.7102407217 -0.09699654579 0.0005967487953073227 6.980264990703305e-05
0.7155621648 -0.09699654579 0.0006414002098178716 2.8264308357349524e-05
0.7208836079 -0.09699654579 0.0006915920646894105 -1.4269170128141948e-05
0.7262051105 -0.09699654579 0.0007482998281171985 -5.5449392071652986e-05
0.7315265536 -0.09699654579 0.000810559775777412 -9.400852265876648e-05
0.7368479967 -0.09699654579 0.0008812210628553976 -0.000132101333162921
0.7421694398 -0.09699654579 0.0009604115406132348 -0.00016540397594284236
0.7474909425 -0.09699654579 0.0010467152723304426 -0.0001963076484814446
0.7528123856 -0.09699654579 0.0011415945415417187 -0.00022034532280207675
0.7581338286 -0.09699654579 0.0012440417462892134 -0.0002373764061729495
-0.3008363545 -0.09367749095 -0.000290400089233178 0.0005852103159255394
-0.2955148816 -0.09367749095 -0.0003023171348849019 0.0005701356010525987
-0.2901934385 -0.09367749095 -0.00031569649220137576 0.000553427818737256
-0.2848719656 -0.09367749095 -0.00032505612966941605 0.0005392071654694609
-0.2795505226 -0.09367749095 -0.0003297635751756762 0.0005271686939095157
-0.2742290497 -0.09367749095 -0.0003345174547912063 0.0005148603011000307
-0.2689076066 -0.09367749095 -0.00033795295621175326 0.0005027668496430568
-0.2635861337 -0.09367749095 -0.00034107291566794033 0.0004918852811403244
-0.2582646906 -0.09367749095 -0.00034223648714186173 0.00047235949312026375
-0.2529432178 -0.09367749095 -0.00034326610668025 0.0004507540054349307
-0.2476217598 -0.09367749095 -0.0003433566174566119 0.0004259607841892698
-0.2423003018 -0.09367749095 -0.00034413255287765726 0.000397621631344103