VARIABLES = X,Y,phix,phiy
ZONE I=200,J=200,F=POINT 
-0.3008363545 -0.1003156006 -0.0003919486297049587 0.0003546344230901087
-0.2955148816 -0.1003156006 -0.00039984350373329844 0.00035678770946710384
-0.2901934385 -0.1003156006 -0.00040883766690837895 0.0003557209458690123
-0.2848719656 -0.1003156006 -0.00041816499102329674 0.0003542708252255756
-0.2795505226 -0.1003156006 -0.0004289466637078391 0.00035210261703986985
-0.2742290497 -0.1003156006 -0.00044118017163980746 0.0003489707257856179
-0.2689076066 -0.1003156006 -0.00045510382967892864 0.00034549197596585134
-0.2635861337 -0.1003156006 -0.00046669661827389633 0.00034254585151963717
-0.2582646906 -0.1003156006 -0.00047610628168763953 0.00033946323370607204
-0.2529432178 -0.1003156006 -0.0004841901103765938 0.0003365623748554793
-0.2476217598 -0.1003156006 -0.0004914085569274379 0.00033407276303641897
-0.2423003018 -0.1003156006 -0.000499692259620249 0.000329447460791766
-0.2369788438 -0.1003156006 -0.0005105333123907381 0.00032168200519596817
-0.2316573858 -0.1003156006 -0.0005225931189453331 0.0003126008432116306
-0.2263359278 -0.1003156006 -0.0005343385525647844 0.00030105703316630057
-0.2210144699 -0.1003156006 -0.0005434404053862334 0.00028295617152462947
-0.2156930119 -0.1003156006 -0.0005526998482150713 0.00026398416398273346
-0.2103715539 -0.1003156006 -0.0005620813943942288 0.00024293280518284576
-0.2050500959 -0.1003156006 -0.0005608132272097909 0.0002273377695773572
-0.1997286379 -0.1003156006 -0.000559481509321285 0.0002115327328980147
-0.19440718 -0.1003156006 -0.0005563284802784019 0.00019617486525915013
-0.189085722 -0.1003156006 -0.000551740280957886 0.0001848044632085596
-0.183764264 -0.1003156006 -0.0005456198693564211 0.00017195913507204758
-0.178442806 -0.1003156006 -0.0005394303106968658 0.00015844867593002842
-0.173121348 -0.1003156006 -0.0005306817064303925 0.00014797989640432605
-0.16779989 -0.1003156006 -0.0005222009985392179 0.00013867754276724006
-0.1624784321 -0.1003156006 -0.0005125868590931084 0.00012942161054354035
-0.1571569741 -0.1003156006 -0.0005034818527506684 0.00012293412054833347
-0.1518355161 -0.1003156006 -0.0004948408749832858 0.00011864398831790669
-0.1465140581 -0.1003156006 -0.0004862876995516858 0.00011444121025087916
-0.1411926001 -0.1003156006 -0.00047784526918912825 0.00011068868500446081
-0.1358711421 -0.1003156006 -0.0004706659109113459 0.00010775965925051713
-0.1305496842 -0.1003156006 -0.0004634171474113736 0.00010483509001710303
-0.1252282262 -0.1003156006 -0.00045608418227868725 0.00010212750270151908
-0.1199067682 -0.1003156006 -0.0004499157636185895 0.0001007405931461102
-0.1145853102 -0.1003156006 -0.0004441615110734674 9.978946177614071e-05
-0.1092638522 -0.1003156006 -0.00043853181716236553 9.897992844573306e-05
-0.1039423943 -0.1003156006 -0.0004328837575590667 9.810643285937474e-05
-0.09862093627 -0.1003156006 -0.00042846576655667095 9.79274486003021e-05
-0.09329947084 -0.1003156006 -0.0004243010519749516 9.782463323834858e-05
-0.08797801286 -0.1003156006 -0.0004201348128778007 9.772275976639992e-05
-0.08265655488 -0.1003156006 -0.00041576188167151965 9.758434196660822e-05
-0.0773350969 -0.1003156006 -0.0004115575666049524 9.675905837016009e-05
-0.07201363891 -0.1003156006 -0.00040732398548416917 9.591530389447945e-05
-0.06669218093 -0.1003156006 -0.0004031093876015276 9.506952572009465e-05
-0.06137072667 -0.1003156006 -0.00039897488000517997 9.422982277590026e-05
-0.05604926869 -0.1003156006 -0.000394958230921609 9.317327404813072e-05
-0.05072781071 -0.1003156006 -0.0003909839984564349 9.208616112147091e-05
-0.045406349 -0.1003156006 -0.00038700913566250543 9.10110892227443e-05
-0.04008489102 -0.1003156006 -0.00038311141067405195 8.98944264784991e-05
-0.03476343304 -0.1003156006 -0.0003792165904318201 8.88426847068649e-05
-0.02944197692 -0.1003156006 -0.0003755554621167387 8.794061195263992e-05
-0.02412051894 -0.1003156006 -0.00037196302149208275 8.705949773027035e-05
-0.01879905909 -0.1003156006 -0.00036832163611214556 8.620687919020544e-05
-0.01347760204 -0.1003156006 -0.00036471364048841845 8.532079195092497e-05
-0.00815614406 -0.1003156006 -0.0003611370110489929 8.448089506030115e-05
-0.00283468538 -0.1003156006 -0.00035769522130065586 8.367548216707339e-05
0.002486772602 -0.1003156006 -0.00035428104265626585 8.289185153799985e-05
0.007808230817 -0.1003156006 -0.0003508781606420263 8.211069260940376e-05
0.0131296888 -0.1003156006 -0.000347430814590805 8.130766215467727e-05
0.01845114678 -0.1003156006 -0.00034412127339024406 8.049952215936745e-05
0.02377260476 -0.1003156006 -0.0003409750031584753 7.968839347770475e-05
0.02909406275 -0.1003156006 -0.0003378960339751782 7.889040943415933e-05
0.03441552073 -0.1003156006 -0.0003348521148480266 7.809192888952665e-05
0.03973697871 -0.1003156006 -0.00033168533769648923 7.728388471412862e-05
0.04505843669 -0.1003156006 -0.00032863476412057764 7.626448381763468e-05
0.05037989467 -0.1003156006 -0.0003256227830804693 7.480332280439851e-05
0.05570135266 -0.1003156006 -0.0003227300295116746 7.33186882986671e-05
0.06102281436 -0.1003156006 -0.00031983419103177245 7.183167978155861e-05
0.06634426862 -0.1003156006 -0.000316866229567115 7.035628110438954e-05
0.0716657266 -0.1003156006 -0.0003138948702249112 6.889754527982675e-05
0.07698718458 -0.1003156006 -0.000309851766544905 6.694775910193778e-05
0.08230864257 -0.1003156006 -0.00030578902036473415 6.495267433143395e-05
0.08763010055 -0.1003156006 -0.00030172451207885286 6.2905585877541e-05
0.09295155853 -0.1003156006 -0.00029762935012632013 6.090302684431084e-05
0.09827301651 -0.1003156006 -0.00029356575639110684 5.8935297614262564e-05
0.1035944745 -0.1003156006 -0.0002890265081031265 5.7099733876024386e-05
0.1089159325 -0.1003156006 -0.0002835713036294666 5.5513250226477094e-05
0.1142373979 -0.1003156006 -0.00027809967565096104 5.3924321107550666e-05
0.1195588559 -0.1003156006 -0.00027260121629672774 5.237455755912121e-05
0.1248803139 -0.1003156006 -0.00026708073589304344 5.081469445703119e-05
0.1302017719 -0.1003156006 -0.0002616102112200963 4.9242560047077155e-05
0.1355232298 -0.1003156006 -0.0002557668674607345 4.782238371232324e-05
0.1408446878 -0.1003156006 -0.00024966605341863974 4.655459716874051e-05
0.1461661458 -0.1003156006 -0.00024355089335421998 4.5350752010558274e-05
0.1514876038 -0.1003156006 -0.00023737052232356427 4.414805309817321e-05
0.1568090618 -0.1003156006 -0.0002312269727931402 4.294476927962605e-05
0.1621305197 -0.1003156006 -0.00022505993873547935 4.174287358468915e-05
0.1674519777 -0.1003156006 -0.0002178981568584469 4.076233366147445e-05
0.1727734357 -0.1003156006 -0.00021026585507209913 3.986512896639316e-05
0.1780948937 -0.1003156006 -0.00020263127624633773 3.8965878810423044e-05
0.1834163517 -0.1003156006 -0.000195014648904279 3.806650198198138e-05
0.1887378097 -0.1003156006 -0.000187446083644412 3.721089533979379e-05
0.1940592676 -0.1003156006 -0.00017996627632425822 3.646671659991885e-05
0.1993807256 -0.1003156006 -0.00017118419272231305 3.691760238213057e-05
0.2047021836 -0.1003156006 -0.00016205412068443677 3.773976208988986e-05
0.2100236416 -0.1003156006 -0.0001529196730028519 3.8569943724080303e-05
0.2153450996 -0.1003156006 -0.0001438897293033003 3.946764437127218e-05
0.2206665576 -0.1003156006 -0.0001348790535630781 4.0346116757239954e-05
0.2259880155 -0.1003156006 -0.00012583057086728485 4.1221451442108614e-05
0.2313094735 -0.1003156006 -0.0001159305050535531 4.3170838164315014e-05
0.2366309315 -0.1003156006 -0.00010595579087154554 4.552811811526462e-05
0.2419523895 -0.1003156006 -9.607412204979355e-05 4.790205532413468e-05
0.2472738475 -0.1003156006 -8.622828239507317e-05 5.027578660834082e-05
0.2525953054 -0.1003156006 -7.639692113777492e-05 5.264887802655474e-05
0.2579167783 -0.1003156006 -6.667247841959582e-05 5.510045751855958e-05
0.2632382214 -0.1003156006 -5.61045531320967e-05 5.962286262373238e-05
0.2685596943 -0.1003156006 -4.5238230633164106e-05 6.46906865891276e-05
0.2738811374 -0.1003156006 -3.422899507504532e-05 6.973537286885744e-05
0.2792026103 -0.1003156006 -2.3322649885791484e-05 7.480165220112625e-05
0.2845240533 -0.1003156006 -1.2785559600745314e-05 7.988164071277348e-05
0.2898455262 -0.1003156006 -2.237233859887849e-06 8.496336561276563e-05
0.2951669693 -0.1003156006 7.6059812691177785e-06 9.301218450319303e-05
0.3004884422 -0.1003156006 1.733291832852049e-05 0.00010153866068991315
0.3058098853 -0.1003156006 2.673326474638812e-05 0.00010985608781584586
0.3111313581 -0.1003156006 3.610310288217084e-05 0.00011816782726081959
0.3164528012 -0.1003156006 4.5484770012252325e-05 0.00012648645810602594
0.3217742741 -0.1003156006 5.4773879778248156e-05 0.00013480988859321965
0.3270957172 -0.1003156006 6.185933590865645e-05 0.0001445194344945267
0.3324171901 -0.1003156006 6.889050821336568e-05 0.00015420990771470281
0.3377386332 -0.1003156006 7.593008643348579e-05 0.00016390043457609806
0.343060106 -0.1003156006 8.296911749057964e-05 0.00017360356311000484
0.3483815491 -0.1003156006 8.993295942852361e-05 0.0001830806064089801
0.353703022 -0.1003156006 9.640686593754293e-05 0.00019276455538648824
0.3590244651 -0.1003156006 0.00010200908290988351 0.0002029288452654599
0.364345938 -0.1003156006 0.00010757728768778716 0.00021310027477958535
0.369667381 -0.1003156006 0.00011310876666812235 0.0002231525513745586
0.3749888539 -0.1003156006 0.00011864168568816035 0.00023325490169464973
0.380310297 -0.1003156006 0.0001241920366856329 0.00024333359441999108
0.3856317699 -0.1003156006 0.00012893674742801492 0.000253845807915674
0.390953213 -0.1003156006 0.00013347974349225261 0.0002644474698586034
0.3962746859 -0.1003156006 0.0001380131241064089 0.00027497716953655676
0.4015961289 -0.1003156006 0.00014255853503009882 0.0002855006730942583
0.4069176018 -0.1003156006 0.00014713190418274517 0.00029606335068529444
0.4122390449 -0.1003156006 0.0001511274114635952 0.00030673795577481694
0.4175605178 -0.1003156006 0.0001544387937120187 0.00031790009189255794
0.4228819609 -0.1003156006 0.00015783896834113695 0.00032906962029556223
0.4282034338 -0.1003156006 0.000161137379632394 0.00034028489582074614
0.4335248768 -0.1003156006 0.00016443590467434877 0.00035122618104344776
0.4388463497 -0.1003156006 0.00016724276156893236 0.000362123899316572
0.4441677928 -0.1003156006 0.00016882863643523399 0.00037304494498718833
0.4494892657 -0.1003156006 0.00017036775384934877 0.0003839730628086316
0.4548107088 -0.1003156006 0.00017202007265792487 0.0003947368546001859
0.4601321816 -0.1003156006 0.0001736817596246187 0.00040554375341040477
0.4654536247 -0.1003156006 0.000174757401894251 0.00041577401720742325
0.4707750976 -0.1003156006 0.00017506386494015134 0.00042519022810481
0.4760965407 -0.1003156006 0.0001756166185378947 0.0004344851566709358
0.4814180136 -0.1003156006 0.00017612022226938285 0.0004437911554774745
0.4867394567 -0.1003156006 0.0001766891818678978 0.00045311100154871257
0.4920609295 -0.1003156006 0.00017700489874036577 0.0004611195267200057
0.4973823726 -0.1003156006 0.0001775994252968565 0.00046864744971846075
0.5027038455 -0.1003156006 0.00017820708259593372 0.00047621470670689724
0.5080252886 -0.1003156006 0.0001788320928548432 0.00048379939968250035
0.5133467317 -0.1003156006 0.00018002970203646388 0.0004907008155283909
0.5186682343 -0.1003156006 0.00018142561248888606 0.0004965624431007892
0.5239896774 -0.1003156006 0.00018295538742195143 0.0005023312693021114
0.5293111205 -0.1003156006 0.00018449496494448843 0.000508242675099853
0.5346325636 -0.1003156006 0.00018692639008550268 0.0005135316514637809
0.5399540663 -0.1003156006 0.00018984684242193193 0.0005178027875054471
0.5452755094 -0.1003156006 0.00019275788943135395 0.0005218391273381498
0.5505969524 -0.1003156006 0.0001958753807623794 0.0005262574353887305
0.5559183955 -0.1003156006 0.0002008013001613716 0.0005296858179072674
0.5612398982 -0.1003156006 0.00020576341118679628 0.0005322209823140855
0.5665613413 -0.1003156006 0.00021079818259675748 0.0005348726886187684
0.5718827844 -0.1003156006 0.00021740555940267416 0.0005374412612171565
0.5772042274 -0.1003156006 0.00022511920831315354 0.0005385161282614058
0.5825257301 -0.1003156006 0.000233004870171707 0.000539484569716204
0.5878471732 -0.1003156006 0.00024210572260656044 0.0005404551058006469
0.5931686163 -0.1003156006 0.0002532243803314802 0.0005402197093272701
0.5984900594 -0.1003156006 0.0002639762346816937 0.0005400784067947853
0.6038115621 -0.1003156006 0.000277536285412929 0.00053859947474556
0.6091330051 -0.1003156006 0.00029195936348429605 0.0005372441867411006
0.6144544482 -0.1003156006 0.0003084227758985662 0.0005345062456724559
0.6197758913 -0.1003156006 0.0003268060443704308 0.0005317694629442823
0.625097394 -0.1003156006 0.0003471872747229824 0.000528740650165527
0.6304188371 -0.1003156006 0.000370716731618764 0.000524557971807828
0.6357402802 -0.1003156006 0.00039587295100648116 0.0005213022031999226
0.6410617828 -0.1003156006 0.0004242553737395515 0.0005173215906628557
0.6463832259 -0.1003156006 0.0004551395863498599 0.0005124864766102829
0.651704669 -0.1003156006 0.0004883297312574881 0.0005071710642937371
0.6570261121 -0.1003156006 0.0005262698870907317 0.0005027739071817311
0.6623476148 -0.1003156006 0.000568192483268867 0.0004979473292082714
0.6676690578 -0.1003156006 0.0006131436523620838 0.000492668543489928
0.6729905009 -0.1003156006 0.0006651227899862461 0.00048824621212778215
0.678311944 -0.1003156006 0.0007208334433283028 0.00048516302504202844
0.6836334467 -0.1003156006 0.0007816518373280262 0.0004820788329939561
0.6889548898 -0.1003156006 0.0008501842877438568 0.0004796380371689948
0.6942763329 -0.1003156006 0.0009255331984074938 0.0004797642867923886
0.6995977759 -0.1003156006 0.00100746353481142 0.00048163600658879794
0.7049192786 -0.1003156006 0.0010970023577805898 0.00048548759525707046
0.7102407217 -0.1003156006 0.0011965042284078568 0.0004929166453541203
0.7155621648 -0.1003156006 0.00130636330953403 0.0005054824038899682
0.7208836079 -0.1003156006 0.001425438357800431 0.0005244825825496548
0.7262051105 -0.1003156006 0.001555148431945071 0.0005495271509680639
0.7315265536 -0.1003156006 0.0016970572768323536 0.0005830878106972957
0.7368479967 -0.1003156006 0.0018560875178136585 0.0006299223574615892
0.7421694398 -0.1003156006 0.0020280220049681665 0.0006870085428208752
0.7474909425 -0.1003156006 0.002203994110441708 0.0007594792397536338
0.7528123856 -0.1003156006 0.002400032645618215 0.0008521969424335588
0.7581338286 -0.1003156006 0.0026105152931836244 0.000964766550461871
-0.3008363545 -0.09699654579 -0.000389548673580421 0.0003586994520150661
-0.2955148816 -0.09699654579 -0.0003970208244924015 0.00036247092382918957
-0.2901934385 -0.09699654579 -0.0004063221542405398 0.00036277576538406203
-0.2848719656 -0.09699654579 -0.00041623570460693995 0.00036105077587807904
-0.2795505226 -0.09699654579 -0.0004271685511944631 0.0003595510448665949
-0.2742290497 -0.09699654579 -0.00043976563991627096 0.0003567475041180545
-0.2689076066 -0.09699654579 -0.00045463578171419327 0.0003528737881194527
-0.2635861337 -0.09699654579 -0.00046935331619912194 0.00034872997719692417
-0.2582646906 -0.09699654579 -0.0004796252327100238 0.0003459635908637079
-0.2529432178 -0.09699654579 -0.00048764765028880367 0.0003433520832629126
-0.2476217598 -0.09699654579 -0.0004938411125041746 0.0003414235676897335
-0.2423003018 -0.09699654579 -0.0005011761423700323 0.0003377226040356144
-0.2369788438 -0.09699654579 -0.0005132267320691528 0.00032983857060377874
-0.2316573858 -0.09699654579 -0.0005253228828755155 0.0003197408517404265
-0.2263359278 -0.09699654579 -0.000538053911966184 0.000308492610507854
-0.2210144699 -0.09699654579 -0.0005478322946463339 0.00029079393714090667
-0.2156930119 -0.09699654579 -0.0005573007584558251 0.00026960352716778874
-0.2103715539 -0.09699654579 -0.0005685447686706202 0.0002459430270179956
-0.2050500959 -0.09699654579 -0.0005702326371154783 0.00022771517161306772
-0.1997286379 -0.09699654579 -0.0005670005232015962 0.00021238279367788736
-0.19440718 -0.09699654579 -0.0005639073260042716 0.00019646604265285728
-0.189085722 -0.09699654579 -0.000558011978694346 0.00018117930387702766
-0.183764264 -0.09699654579 -0.0005512134274257156 0.00016736748398190314
-0.178442806 -0.09699654579 -0.0005427577321573076 0.00015330999583908634
-0.173121348 -0.09699654579 -0.000533666143327488 0.00014244544241776784
-0.16779989 -0.09699654579 -0.0005237639256932916 0.0001331562331395614
-0.1624784321 -0.09699654579 -0.0005137957207855796 0.0001240630360254881
-0.1571569741 -0.09699654579 -0.0005033938074379621 0.00011775675017391903
-0.1518355161 -0.09699654579 -0.0004943589453138989 0.00011360042414789054
-0.1465140581 -0.09699654579 -0.0004846835286786983 0.00010969223313180384
-0.1411926001 -0.09699654579 -0.00047561279613753544 0.00010593082134780394
-0.1358711421 -0.09699654579 -0.0004682767695618029 0.00010326931246912733
-0.1305496842 -0.09699654579 -0.000460918693782081 0.0001006870889735188
-0.1252282262 -0.09699654579 -0.00045346117341825827 9.810291378699384e-05
-0.1199067682 -0.09699654579 -0.00044695237523069176 9.697409463809052e-05
-0.1145853102 -0.09699654579 -0.00044110400597351275 9.617344461869108e-05
-0.1092638522 -0.09699654579 -0.0004352333240354247 9.545219323313375e-05
-0.1039423943 -0.09699654579 -0.0004293204028407252 9.483644353781078e-05
-0.09862093627 -0.09699654579 -0.00042489169890659904 9.483039222795229e-05
-0.09329947084 -0.09699654579 -0.0004205556927610752 9.492102129490121e-05
-0.08797801286 -0.09699654579 -0.00041632933431216644 9.510142075524726e-05
-0.08265655488 -0.09699654579 -0.0004119429337016793 9.512655462389774e-05
-0.0773350969 -0.09699654579 -0.00040784922410625336 9.428666847566272e-05
-0.07201363891 -0.09699654579 -0.00040380785537183717 9.34400190661212e-05
-0.06669218093 -0.09699654579 -0.00039973677074508243 9.259534945895262e-05
-0.06137072667 -0.09699654579 -0.00039551580793726124 9.176853308607777e-05
-0.05604926869 -0.09699654579 -0.00039136909670395314 9.071966628714764e-05
-0.05072781071 -0.09699654579 -0.0003873571622668213 8.959574363685145e-05
-0.045406349 -0.09699654579 -0.00038335166917329044 8.847218297479608e-05
-0.04008489102 -0.09699654579 -0.00037927978840796955 8.735769851411096e-05
-0.03476343304 -0.09699654579 -0.00037529430265989295 8.633001042370928e-05
-0.02944197692 -0.09699654579 -0.00037160479809446897 8.549911699729955e-05
-0.02412051894 -0.09699654579 -0.00036790425533570213 8.467601458042217e-05
-0.01879905909 -0.09699654579 -0.0003641874906949832 8.384507547904427e-05
-0.01347760204 -0.09699654579 -0.00036058141663109823 8.300848809128899e-05
-0.00815614406 -0.09699654579 -0.0003570036793602906 8.223733321827961e-05
-0.00283468538 -0.09699654579 -0.0003535694561434946 8.150936754996049e-05
0.002486772602 -0.09699654579 -0.00035011162353528337 8.080362834664112e-05
0.007808230817 -0.09699654579 -0.0003466865141904272 8.010100092686565e-05
0.0131296888 -0.09699654579 -0.0003432612644906299 7.938166457832201e-05
0.01845114678 -0.09699654579 -0.0003400600121063178 7.862974068250954e-05
0.02377260476 -0.09699654579 -0.000337083370574872 7.785342164000046e-05
0.02909406275 -0.09699654579 -0.0003341791784913461 7.708973354060458e-05
0.03441552073 -0.09699654579 -0.0003312810845469503 7.632861260518672e-05
0.03973697871 -0.09699654579 -0.000328314430910052 7.555497383679921e-05
0.04505843669 -0.09699654579 -0.00032544872523703757 7.452095006133188e-05
0.05037989467 -0.09699654579 -0.00032277584385463794 7.298842570824117e-05
0.05570135266 -0.09699654579 -0.0003200938919474475 7.144443722467884e-05
0.06102281436 -0.09699654579 -0.0003174904586056893 6.987780245834708e-05
0.06634426862 -0.09699654579 -0.000314786256633512 6.834826774518825e-05
0.0716657266 -0.09699654579 -0.00031207347825439285 6.681882904880904e-05
0.07698718458 -0.09699654579 -0.000308248979122766 6.470254288251325e-05
0.08230864257 -0.09699654579 -0.0003043667569555436 6.254436668833362e-05
0.08763010055 -0.09699654579 -0.0003004741406172934 6.041146915080597e-05
0.09295155853 -0.09699654579 -0.0002965535560778766 5.827295016579267e-05
0.09827301651 -0.09699654579 -0.000292625144457185 5.614016705001439e-05
0.1035944745 -0.09699654579 -0.00028831071035133847 5.417178519287763e-05
0.1089159325 -0.09699654579 -0.00028302431910237207 5.247830733485951e-05
0.1142373979 -0.09699654579 -0.0002777150936435642 5.0828286024572105e-05
0.1195588559 -0.09699654579 -0.0002723885513269987 4.9207823761638483e-05
0.1248803139 -0.09699654579 -0.00026707304982592203 4.758746711251005e-05
0.1302017719 -0.09699654579 -0.00026177008938490446 4.594189922514707e-05
0.1355232298 -0.09699654579 -0.0002561436606172979 4.4402181512342896e-05
0.1408446878 -0.09699654579 -0.00025023840779896453 4.3062428900355704e-05
0.1461661458 -0.09699654579 -0.00024426047960321293 4.1721655979805864e-05
0.1514876038 -0.09699654579 -0.00023818518030124743 4.037489513029842e-05
0.1568090618 -0.09699654579 -0.00023208248150721837 3.90288194645223e-05
0.1621305197 -0.09699654579 -0.00022601703663356482 3.773257862244979e-05
0.1674519777 -0.09699654579 -0.00021876020218229082 3.66164934481082e-05
0.1727734357 -0.09699654579 -0.00021117342571678931 3.5548790862865965e-05
0.1780948937 -0.09699654579 -0.00020348272556233545 3.443086127511708e-05
0.1834163517 -0.09699654579 -0.0001958348234621741 3.332270874168731e-05
0.1887378097 -0.09699654579 -0.0001882549363041129 3.233952866919494e-05
0.1940592676 -0.09699654579 -0.00018065632416728222 3.135450948780466e-05
0.1993807256 -0.09699654579 -0.00017177634830715648 3.168021322407834e-05
0.2047021836 -0.09699654579 -0.00016248909160822676 3.23424887492869e-05
0.2100236416 -0.09699654579 -0.0001533539034956696 3.308209924007492e-05
0.2153450996 -0.09699654579 -0.0001441717610634966 3.3831984977268613e-05
0.2206665576 -0.09699654579 -0.00013500648806828426 3.4580868872658396e-05
0.2259880155 -0.09699654579 -0.0001258518373153494 3.531959315175563e-05
0.2313094735 -0.09699654579 -0.000115812485549853 3.7258743848580247e-05
0.2366309315 -0.09699654579 -0.00010561279114770169 3.946448281808873e-05
0.2419523895 -0.09699654579 -9.536608698444789e-05 4.167110920682786e-05
0.2472738475 -0.09699654579 -8.514853321488024e-05 4.3876919107042154e-05
0.2525953054 -0.09699654579 -7.503888239675626e-05 4.616564677625473e-05
0.2579167783 -0.09699654579 -6.508536896206796e-05 4.849219320139939e-05
0.2632382214 -0.09699654579 -5.3806127681136564e-05 5.3055521792409545e-05
0.2685596943 -0.09699654579 -4.22694772393437e-05 5.809111990581876e-05
0.2738811374 -0.09699654579 -3.09382323816184e-05 6.313336679348608e-05
0.2792026103 -0.09699654579 -1.984711611837401e-05 6.815904759556717e-05
0.2845240533 -0.09699654579 -8.687698633320571e-06 7.319592860128036e-05
0.2898455262 -0.09699654579 2.5585567569953342e-06 7.823041708081846e-05
0.2951669693 -0.09699654579 1.284307793970473e-05 8.657200982180773e-05
0.3004884422 -0.09699654579 2.279956537118503e-05 9.51925080123458e-05
0.3058098853 -0.09699654579 3.266462708551783e-05 0.00010383600329923496
0.3111313581 -0.09699654579 4.2597486445206096e-05 0.00011247421480886317
0.3164528012 -0.09699654579 5.234731377856735e-05 0.00012103616544393215
0.3217742741 -0.09699654579 6.177254310351372e-05 0.00012952000097536507
0.3270957172 -0.09699654579 6.89204714771018e-05 0.00013946251761916124
0.3324171901 -0.09699654579 7.611504095927712e-05 0.00014940564182627916
0.3377386332 -0.09699654579 8.329673942776377e-05 0.00015928354486139767
0.343060106 -0.09699654579 9.040340724009274e-05 0.00016908079538744642
0.3483815491 -0.09699654579 9.75362131034479e-05 0.0001788826033877454
0.353703022 -0.09699654579 0.00010415444943770359 0.00018890471281943837
0.3590244651 -0.09699654579 0.00010981513841276826 0.00019929443010871487
0.364345938 -0.09699654579 0.00011541374761777697 0.000209555503938808
0.369667381 -0.09699654579 0.00012103455025757657 0.00021980801956083653
0.3749888539 -0.09699654579 0.00012660409900894603 0.00023004202049518136
0.380310297 -0.09699654579 0.00013219558665064515 0.00024024164021469737
0.3856317699 -0.09699654579 0.00013694564209816107 0.000250766964157631
0.390953213 -0.09699654579 0.00014157879875835916 0.0002615071444007438
0.3962746859 -0.09699654579 0.00014626556171408117 0.0002722158176141196
0.4015961289 -0.09699654579 0.0001508480453217285 0.00028292331520276095
0.4069176018 -0.09699654579 0.00015542458815132257 0.00029351190024753135
0.4122390449 -0.09699654579 0.00015942932679715847 0.0003044247715698038
0.4175605178 -0.09699654579 0.00016279266766655075 0.0003158275525708696
0.4228819609 -0.09699654579 0.00016608214888779138 0.0003271126770656843
0.4282034338 -0.09699654579 0.00016938575958283202 0.00033828029657586315
0.4335248768 -0.09699654579 0.00017268401141369441 0.00034948740527191867
0.4388463497 -0.09699654579 0.00017529746626292585 0.00036080757792881276
0.4441677928 -0.09699654579 0.00017669383679978562 0.0003718972839205579
0.4494892657 -0.09699654579 0.0001781532695935504 0.0003829484218679738
0.4548107088 -0.09699654579 0.00017965883085338725 0.0003940178516940317
0.4601321816 -0.09699654579 0.00018113228377643575 0.00040509695763260714
0.4654536247 -0.09699654579 0.00018216709926937208 0.0004152944821559578
0.4707750976 -0.09699654579 0.0001823321908302446 0.00042475784482221994
0.4760965407 -0.09699654579 0.00018240672499498262 0.00043420008406957843
0.4814180136 -0.09699654579 0.00018256308418637717 0.0004436620968690665
0.4867394567 -0.09699654579 0.00018291799982524486 0.0004530132023042064
0.4920609295 -0.09699654579 0.0001831998078593461 0.0004608388798199309
0.4973823726 -0.09699654579 0.0001834615096835334 0.00046829873485510404
0.5027038455 -0.09699654579 0.00018372690598572434 0.0004759673675638562
0.5080252886 -0.09699654579 0.0001841155851547954 0.0004834493318994866
0.5133467317 -0.09699654579 0.00018483334655992146 0.0004900039218762781
0.5186682343 -0.09699654579 0.00018596085810906697 0.000495668085995303
0.5239896774 -0.09699654579 0.00018750045420886605 0.000501411121642315
0.5293111205 -0.09699654579 0.00018876468271172172 0.0005071741332716935
0.5346325636 -0.09699654579 0.00019049597318898393 0.0005118939126455634
0.5399540663 -0.09699654579 0.000193217268542564 0.000515887269207349
0.5452755094 -0.09699654579 0.0001961615432975282 0.00051990520349463
0.5505969524 -0.09699654579 0.00019880467272318154 0.0005239068271559135
0.5559183955 -0.09699654579 0.00020285106568671265 0.0005264712295699427
0.5612398982 -0.09699654579 0.00020792459350412856 0.0005289758887632891
0.5665613413 -0.09699654579 0.000213031437741829 0.0005314780380517263
0.5718827844 -0.09699654579 0.0002185507761409512 0.0005328598640805607
0.5772042274 -0.09699654579 0.00022607485199129505 0.000533737169502252
0.5825257301 -0.09699654579 0.0002336635672385115 0.000534621100594756
0.5878471732 -0.09699654579 0.00024217131169645257 0.0005342388262460731
0.5931686163 -0.09699654579 0.0002527754808476722 0.0005334428965378654
0.5984900594 -0.09699654579 0.0002632783050601897 0.0005321025354272735
0.6038115621 -0.09699654579 0.0002765564119121845 0.0005300542656045883
0.6091330051 -0.09699654579 0.0002907089662062105 0.0005269334662825813
0.6144544482 -0.09699654579 0.0003065076159320224 0.0005241523154493158
0.6197758913 -0.09699654579 0.00032533630119935795 0.0005197233016457261
0.625097394 -0.09699654579 0.00034476685219561517 0.0005154552747335604
0.6304188371 -0.09699654579 0.0003681545438201295 0.0005107991345816178
0.6357402802 -0.09699654579 0.0003926323364926681 0.0005044647075872387
0.6410617828 -0.09699654579 0.0004200474510983409 0.0004989162648609932
0.6463832259 -0.09699654579 0.0004511076661429612 0.0004921189892656437
0.651704669 -0.09699654579 0.0004844405389747382 0.00048476798110299815
0.6570261121 -0.09699654579 0.0005231703452656781 0.00047790944151931324
0.6623476148 -0.09699654579 0.0005646519027970902 0.0004709438026209216
0.6676690578 -0.09699654579 0.0006104862017292736 0.0004638707678341764
0.6729905009 -0.09699654579 0.0006613429689652041 0.00045646782951476596
0.678311944 -0.09699654579 0.000717008595921051 0.00044832868095844724
0.6836334467 -0.09699654579 0.0007777482442504487 0.00044129070839061537
0.6889548898 -0.09699654579 0.0008457975832468118 0.0004356384112085846
0.6942763329 -0.09699654579 0.0009219759817306417 0.0004310957669726542
0.6995977759 -0.09699654579 0.0010057240006376867 0.0004267166282442419
0.7049192786 -0.09699654579 0.0010967626093237506 0.00042553461931486023
0.7102407217 -0.09699654579 0.0011976900617411126 0.000427804199267625
0.7155621648 -0.09699654579 0.001311366977575438 0.00043495902349995573
0.7208836079 -0.09699654579 0.0014366740947984718 0.0004451657116319549
0.7262051105 -0.09699654579 0.0015734613061941787 0.0004624760805579058
0.7315265536 -0.09699654579 0.0017209377174413443 0.0004883047676745437
0.7368479967 -0.09699654579 0.0018842555974506827 0.0005233269315860329
0.7421694398 -0.09699654579 0.0020626674080987204 0.0005744636533780826
0.7474909425 -0.09699654579 0.0022554885133110924 0.0006369929665964667
0.7528123856 -0.09699654579 0.0024634244330367073 0.0007219048578297203
0.7581338286 -0.09699654579 0.0026845496337881683 0.0008283704907334113
-0.3008363545 -0.09367749095 -0.0003869743269334953 0.00036330081744247633
-0.2955148816 -0.09367749095 -0.0003945379762327941 0.0003675366340921281
-0.2901934385 -0.09367749095 -0.0004034610148080599 0.00036921669257234264
-0.2848719656 -0.09367749095 -0.000414004721502588 0.00036908792451470507
-0.2795505226 -0.09367749095 -0.000425045522235965 0.00036727919287543733
-0.2742290497 -0.09367749095 -0.0004390741302310368 0.0003645468320031384
-0.2689076066 -0.09367749095 -0.00045394348735072596 0.0003609732502111828
-0.2635861337 -0.09367749095 -0.00047139153146027795 0.00035615967315456414
-0.2582646906 -0.09367749095 -0.0004829046372886057 0.00035262882025165323
-0.2529432178 -0.09367749095 -0.0004924567626936512 0.0003505913407589888