VARIABLES = X,Y,phix,phiy
ZONE I=200,J=200,F=POINT 
-0.3008363545 -0.1003156006 0.0002714746397523051 -0.00032011665154827666
-0.2955148816 -0.1003156006 0.00027573122004488155 -0.00031588777772810045
-0.2901934385 -0.1003156006 0.0002766880392188496 -0.0003149181670584806
-0.2848719656 -0.1003156006 0.0002771282587856633 -0.0003135621249909697
-0.2795505226 -0.1003156006 0.00027819266193460557 -0.000312222257136307
-0.2742290497 -0.1003156006 0.00027844515009954 -0.00031060358202462046
-0.2689076066 -0.1003156006 0.0002781856174892113 -0.000308830731642554
-0.2635861337 -0.1003156006 0.0002836106969335471 -0.0002982069015720925
-0.2582646906 -0.1003156006 0.0002934785390536746 -0.00028112031671996334
-0.2529432178 -0.1003156006 0.0003057826749327234 -0.00026206044428253274
-0.2476217598 -0.1003156006 0.0003204390634659372 -0.00023961507369626794
-0.2423003018 -0.1003156006 0.0003248684586604366 -0.00022256658573837764
-0.2369788438 -0.1003156006 0.00031829487766056754 -0.0002109847067397788
-0.2316573858 -0.1003156006 0.00030940124607938625 -0.000198593400919175
-0.2263359278 -0.1003156006 0.00029923956808833904 -0.00018747030455153066
-0.2210144699 -0.1003156006 0.0002853926441040098 -0.0001832857189277592
-0.2156930119 -0.1003156006 0.0002691585708135106 -0.0001813712474202105
-0.2103715539 -0.1003156006 0.0002518043654705377 -0.00018374428689255524
-0.2050500959 -0.1003156006 0.0002604479905706174 -0.0001843134927868433
-0.1997286379 -0.1003156006 0.00027088515416570565 -0.00018443708518460034
-0.19440718 -0.1003156006 0.0002867017957642739 -0.00018544941799672796
-0.189085722 -0.1003156006 0.00028902153379777154 -0.00017649588155380474
-0.183764264 -0.1003156006 0.000291443237545385 -0.0001670565220794878
-0.178442806 -0.1003156006 0.0002932970206450401 -0.00015914883553216634
-0.173121348 -0.1003156006 0.0002935503379723616 -0.00014962470158358566
-0.16779989 -0.1003156006 0.0002914038754718622 -0.00014047677293511625
-0.1624784321 -0.1003156006 0.00029123214697489774 -0.00012946693391420065
-0.1571569741 -0.1003156006 0.00028831473913929834 -0.00011872225958402742
-0.1518355161 -0.1003156006 0.0002821804531266139 -0.00010620121697883229
-0.1465140581 -0.1003156006 0.0002757249092362751 -9.27393952251683e-05
-0.1411926001 -0.1003156006 0.00026752477673369857 -8.0166957534235e-05
-0.1358711421 -0.1003156006 0.0002572607011812984 -7.087646090789412e-05
-0.1305496842 -0.1003156006 0.0002470081508271266 -6.1587263087784e-05
-0.1252282262 -0.1003156006 0.00023552204936038739 -5.253887524219337e-05
-0.1199067682 -0.1003156006 0.000224941536061818 -4.613293244569452e-05
-0.1145853102 -0.1003156006 0.00021456249718160292 -4.068496050861767e-05
-0.1092638522 -0.1003156006 0.00020382248920390806 -3.5358150898410686e-05
-0.1039423943 -0.1003156006 0.00019333919619385316 -2.9978945535408013e-05
-0.09862093627 -0.1003156006 0.00018479735013145952 -2.835728242235771e-05
-0.09329947084 -0.1003156006 0.00017620124160801096 -2.710071764214706e-05
-0.08797801286 -0.1003156006 0.00016763991789689057 -2.5845953371396057e-05
-0.08265655488 -0.1003156006 0.0001589926047726332 -2.4628658902854958e-05
-0.0773350969 -0.1003156006 0.00015329428598823787 -2.468410170519415e-05
-0.07201363891 -0.1003156006 0.0001475868932653587 -2.4685615275082366e-05
-0.06669218093 -0.1003156006 0.00014192354859807955 -2.4687300762191796e-05
-0.06137072667 -0.1003156006 0.00013625334527309795 -2.486935431045868e-05
-0.05604926869 -0.1003156006 0.00013139767268189606 -2.468707926274564e-05
-0.05072781071 -0.1003156006 0.0001268608867674703 -2.4538612625680848e-05
-0.045406349 -0.1003156006 0.00012238750662052616 -2.4374224578627946e-05
-0.04008489102 -0.1003156006 0.0001178262573242854 -2.419382142641324e-05
-0.03476343304 -0.1003156006 0.00011311038344155075 -2.393486104807114e-05
-0.02944197692 -0.1003156006 0.00010829425912027033 -2.3732731440353495e-05
-0.02412051894 -0.1003156006 0.00010350410002811443 -2.3575767772056964e-05
-0.01879905909 -0.1003156006 9.861703950130557e-05 -2.3492451140796563e-05
-0.01347760204 -0.1003156006 9.378473949987097e-05 -2.332404075585679e-05
-0.00815614406 -0.1003156006 9.04824087417053e-05 -2.3038207467228976e-05
-0.00283468538 -0.1003156006 8.836998583837733e-05 -2.2723624735325865e-05
0.002486772602 -0.1003156006 8.659382386751642e-05 -2.259695823741452e-05
0.007808230817 -0.1003156006 8.47900472279161e-05 -2.2475938906302668e-05
0.0131296888 -0.1003156006 8.278479961491345e-05 -2.2195914545282092e-05
0.01845114678 -0.1003156006 8.10627141515704e-05 -2.0100482236354596e-05
0.02377260476 -0.1003156006 7.971806252485374e-05 -1.6623712896007922e-05
0.02909406275 -0.1003156006 7.848711821284809e-05 -1.3011415773239704e-05
0.03441552073 -0.1003156006 7.733902973468777e-05 -9.39835698986043e-06
0.03973697871 -0.1003156006 7.595306786090328e-05 -5.905579503102282e-06
0.04505843669 -0.1003156006 7.2956327165686e-05 -2.2508551776395076e-06
0.05037989467 -0.1003156006 6.729881877278903e-05 1.7430025694341615e-06
0.05570135266 -0.1003156006 6.159400952244272e-05 5.915801042258794e-06
0.06102281436 -0.1003156006 5.577965765340499e-05 1.0093325803330943e-05
0.06634426862 -0.1003156006 5.01212854150803e-05 1.4153508086297613e-05
0.0716657266 -0.1003156006 4.451249122528372e-05 1.8115483868592904e-05
0.07698718458 -0.1003156006 3.8435235782978605e-05 1.8458059818525382e-05
0.08230864257 -0.1003156006 3.233814820514239e-05 1.848398309369482e-05
0.08763010055 -0.1003156006 2.624367386456919e-05 1.8427210241571997e-05
0.09295155853 -0.1003156006 2.0160431443298527e-05 1.8469862185960046e-05
0.09827301651 -0.1003156006 1.4125296215422944e-05 1.8563964724442504e-05
0.1035944745 -0.1003156006 9.055111976779835e-06 1.8824651013227838e-05
0.1089159325 -0.1003156006 6.240425636587885e-06 1.9460167603726772e-05
0.1142373979 -0.1003156006 3.3746414134196778e-06 2.009333420943809e-05
0.1195588559 -0.1003156006 4.111270908934936e-07 2.086761715591494e-05
0.1248803139 -0.1003156006 -2.597933031281667e-06 2.160639166970933e-05
0.1302017719 -0.1003156006 -5.50258233049824e-06 2.2290514058898847e-05
0.1355232298 -0.1003156006 -8.687158247622947e-06 2.4974227062854645e-05
0.1408446878 -0.1003156006 -1.2133620785433948e-05 2.9069800750751374e-05
0.1461661458 -0.1003156006 -1.567480612329824e-05 3.2910473846896374e-05
0.1514876038 -0.1003156006 -1.923446700253389e-05 3.675175984532431e-05
0.1568090618 -0.1003156006 -2.2775087721518788e-05 4.059383260608955e-05
0.1621305197 -0.1003156006 -2.6336706432017118e-05 4.444267287845693e-05
0.1674519777 -0.1003156006 -3.3801226537793594e-05 4.736201857618477e-05
0.1727734357 -0.1003156006 -4.2898126123927486e-05 4.9884252999374474e-05
0.1780948937 -0.1003156006 -5.200319918856079e-05 5.240661805908743e-05
0.1834163517 -0.1003156006 -6.10637665203367e-05 5.492666865683124e-05
0.1887378097 -0.1003156006 -7.001531485959316e-05 5.7373279460490964e-05
0.1940592676 -0.1003156006 -7.859701464990959e-05 5.959069184292333e-05
0.1993807256 -0.1003156006 -8.838420438689658e-05 5.7635959990545e-05
0.2047021836 -0.1003156006 -9.858016727221707e-05 5.430605195076486e-05
0.2100236416 -0.1003156006 -0.0001086770427659536 5.100573052172466e-05
0.2153450996 -0.1003156006 -0.00011827922661155828 4.793856548958153e-05
0.2206665576 -0.1003156006 -0.00012809969450152018 4.472333858703392e-05
0.2259880155 -0.1003156006 -0.00013791036051220073 4.150227234713966e-05
0.2313094735 -0.1003156006 -0.00014502417539952373 3.576857013491793e-05
0.2366309315 -0.1003156006 -0.0001512561214276732 2.9541770829295583e-05
0.2419523895 -0.1003156006 -0.00015737962760058633 2.3347728212547492e-05
0.2472738475 -0.1003156006 -0.00016351320582262436 1.7139174517193143e-05
0.2525953054 -0.1003156006 -0.00016984384149035614 1.094136231344713e-05
0.2579167783 -0.1003156006 -0.00017607671271884493 4.929590753769341e-06
0.2632382214 -0.1003156006 -0.00018092442873799666 -1.5903842052238416e-06
0.2685596943 -0.1003156006 -0.00018552428284802442 -8.228937366514405e-06
0.2738811374 -0.1003156006 -0.0001901551932510397 -1.4854244387769587e-05
0.2792026103 -0.1003156006 -0.00019472464688201496 -2.149956230311902e-05
0.2845240533 -0.1003156006 -0.0001990864919560043 -2.8079656024737144e-05
0.2898455262 -0.1003156006 -0.0002034620853001753 -3.4659625850519936e-05
0.2951669693 -0.1003156006 -0.00020692118826421985 -4.447392016367685e-05
0.3004884422 -0.1003156006 -0.00021026329092724207 -5.4779782241527675e-05
0.3058098853 -0.1003156006 -0.00021310748239182826 -6.46668735902751e-05
0.3111313581 -0.1003156006 -0.00021599515377594892 -7.455199688332662e-05
0.3164528012 -0.1003156006 -0.0002188306184149974 -8.444044436339414e-05
0.3217742741 -0.1003156006 -0.0002215594228382358 -9.436168323056982e-05
0.3270957172 -0.1003156006 -0.0002190738554165397 -0.00010689658701821853
0.3324171901 -0.1003156006 -0.00021665561940854762 -0.00011944465162345317
0.3377386332 -0.1003156006 -0.0002141872298937041 -0.00013199361645920398
0.343060106 -0.1003156006 -0.00021170571236875672 -0.00014453335823383465
0.3483815491 -0.1003156006 -0.00020902495961617906 -0.00015637383401645333
0.353703022 -0.1003156006 -0.00020427179838465785 -0.00016802212542632022
0.3590244651 -0.1003156006 -0.00019469608420856417 -0.00017935145059740803
0.364345938 -0.1003156006 -0.0001851077793059211 -0.00019067896503971142
0.369667381 -0.1003156006 -0.00017575248078604105 -0.00020123016421872252
0.3749888539 -0.1003156006 -0.00016625628776675792 -0.0002119616419455214
0.380310297 -0.1003156006 -0.00015683334757337023 -0.00022282033521907885
0.3856317699 -0.1003156006 -0.00014250172772728578 -0.000231079892562166
0.390953213 -0.1003156006 -0.0001270922256095492 -0.0002377578404730631
0.3962746859 -0.1003156006 -0.00011186890359491064 -0.0002443956815772356
0.4015961289 -0.1003156006 -9.664659032419427e-05 -0.00025104992261663455
0.4069176018 -0.1003156006 -8.147490533950447e-05 -0.00025769949408613736
0.4122390449 -0.1003156006 -6.534565396311389e-05 -0.0002611498865042365
0.4175605178 -0.1003156006 -4.664785063052916e-05 -0.00026072043517093454
0.4228819609 -0.1003156006 -2.7597212024416236e-05 -0.00026043375205775073
0.4282034338 -0.1003156006 -8.54073320161492e-06 -0.0002600936029411288
0.4335248768 -0.1003156006 9.445219062858782e-06 -0.00025954609967914513
0.4388463497 -0.1003156006 2.7345350172442407e-05 -0.00025699826967619623
0.4441677928 -0.1003156006 4.4992283785215886e-05 -0.0002489561940365227
0.4494892657 -0.1003156006 6.234268055869528e-05 -0.00024095832626517438
0.4548107088 -0.1003156006 7.908427350755465e-05 -0.0002332468451808195
0.4601321816 -0.1003156006 9.61913753338439e-05 -0.0002253826933220328
0.4654536247 -0.1003156006 0.00011165420821589856 -0.0002154495072213408
0.4707750976 -0.1003156006 0.00012418115710949665 -0.0002025368198495032
0.4760965407 -0.1003156006 0.0001364788131518968 -0.00019020186280910308
0.4814180136 -0.1003156006 0.00014869855052950594 -0.00017785975301527976
0.4867394567 -0.1003156006 0.00016099877372320175 -0.00016548608091606663
0.4920609295 -0.1003156006 0.00016924451992418843 -0.0001521383532207672
0.4973823726 -0.1003156006 0.000176307664763448 -0.00013874401013599363
0.5027038455 -0.1003156006 0.0001834371536911903 -0.00012535026881417023
0.5080252886 -0.1003156006 0.00019049782730349516 -0.00011195873008407969
0.5133467317 -0.1003156006 0.00019628389884897616 -9.979056282451855e-05
0.5186682343 -0.1003156006 0.00020000843187617588 -8.802686494047207e-05
0.5239896774 -0.1003156006 0.00020362859786269297 -7.62567901558504e-05
0.5293111205 -0.1003156006 0.00020740712712343035 -6.458709216390334e-05
0.5346325636 -0.1003156006 0.0002109139486087208 -5.404092464875619e-05
0.5399540663 -0.1003156006 0.00021362232135780724 -4.448821747648786e-05
0.5452755094 -0.1003156006 0.00021618550109213738 -3.490018222990908e-05
0.5505969524 -0.1003156006 0.00021893960955689522 -2.540318214283234e-05
0.5559183955 -0.1003156006 0.00022158075329152508 -1.7191049435371444e-05
0.5612398982 -0.1003156006 0.00022397427645471374 -9.44610742481129e-06
0.5665613413 -0.1003156006 0.00022631534646702084 -1.6960207847715872e-06
0.5718827844 -0.1003156006 0.00022894401474121988 5.533311914363998e-06
0.5772042274 -0.1003156006 0.00023135577586769383 1.1783205358531463e-05
0.5825257301 -0.1003156006 0.0002337626324861111 1.80166903823842e-05
0.5878471732 -0.1003156006 0.00023649378672372713 2.373645341940293e-05
0.5931686163 -0.1003156006 0.00023935708900383272 2.843628287942716e-05
0.5984900594 -0.1003156006 0.0002420086605261548 3.32861474270911e-05
0.6038115621 -0.1003156006 0.00024507289778022244 3.687400013194019e-05
0.6091330051 -0.1003156006 0.00024838055608215307 4.029987840448993e-05
0.6144544482 -0.1003156006 0.0002519549931791799 4.253627085734332e-05
0.6197758913 -0.1003156006 0.00025635315898362397 4.409071717681356e-05
0.625097394 -0.1003156006 0.00026119743163856 4.491186551296437e-05
0.6304188371 -0.1003156006 0.00026683012694384825 4.412419662933587e-05
0.6357402802 -0.1003156006 0.0002734297554041866 4.31095791619002e-05
0.6410617828 -0.1003156006 0.00028080225343577126 4.069727669469825e-05
0.6463832259 -0.1003156006 0.00028900755965364404 3.711207556086245e-05
0.651704669 -0.1003156006 0.00029791988893446716 3.259805657111682e-05
0.6570261121 -0.1003156006 0.0003093241381269692 2.6969426266963508e-05
0.6623476148 -0.1003156006 0.00032206311587748034 1.9942133935843336e-05
0.6676690578 -0.1003156006 0.00033623381179636013 1.1715880693324526e-05
0.6729905009 -0.1003156006 0.00035398091859890673 1.7501270172982687e-06
0.678311944 -0.1003156006 0.0003738583978435353 -8.598755253358585e-06
0.6836334467 -0.1003156006 0.00039612989408689583 -2.031362923825098e-05
0.6889548898 -0.1003156006 0.00042232020101573656 -3.346467722515022e-05
0.6942763329 -0.1003156006 0.0004524409450914266 -4.786802287049763e-05
0.6995977759 -0.1003156006 0.00048637812645579834 -6.306767392518203e-05
0.7049192786 -0.1003156006 0.000524362061007396 -7.827927089066751e-05
0.7102407217 -0.1003156006 0.0005681674231120637 -9.449750497821587e-05
0.7155621648 -0.1003156006 0.0006183866695386534 -0.00011018797912159063
0.7208836079 -0.1003156006 0.0006746666085177691 -0.00012484693797819486
0.7262051105 -0.1003156006 0.0007374364834454907 -0.0001387677128727895
0.7315265536 -0.1003156006 0.0008082098206287323 -0.0001503448899490844
0.7368479967 -0.1003156006 0.0008896450656699547 -0.00015891437524318366
0.7421694398 -0.1003156006 0.0009796076813971622 -0.00016462350407212855
0.7474909425 -0.1003156006 0.0010741860736769053 -0.00016338316622865217
0.7528123856 -0.1003156006 0.001182233260776029 -0.000155727158997499
0.7581338286 -0.1003156006 0.0013003127043461386 -0.00014061899289031645
-0.3008363545 -0.09699654579 0.0002727752686821368 -0.00032310519910909663
-0.2955148816 -0.09699654579 0.0002773010672130931 -0.0003187415644706247
-0.2901934385 -0.09699654579 0.0002798306900290802 -0.0003154812493642843
-0.2848719656 -0.09699654579 0.0002806594450848516 -0.00031405844083439496
-0.2795505226 -0.09699654579 0.00028170366482483126 -0.0003134433544275816
-0.2742290497 -0.09699654579 0.0002823270039573234 -0.0003122441793550792
-0.2689076066 -0.09699654579 0.0002812624463301029 -0.0003102266581129323
-0.2635861337 -0.09699654579 0.0002845233412933109 -0.0003038084568432957
-0.2582646906 -0.09699654579 0.0002933420052973702 -0.0002874872346517599
-0.2529432178 -0.09699654579 0.0003069285415295519 -0.0002661877563238838
-0.2476217598 -0.09699654579 0.00032366159519794013 -0.00024171729122024035
-0.2423003018 -0.09699654579 0.00033619184184120174 -0.00021884248241706933
-0.2369788438 -0.09699654579 0.00032895035353403554 -0.00020588899150138814
-0.2316573858 -0.09699654579 0.0003186658292561823 -0.00019412571678077397
-0.2263359278 -0.09699654579 0.0003035977183189365 -0.0001813714948739171
-0.2210144699 -0.09699654579 0.0002885089169621689 -0.00017644353508366377
-0.2156930119 -0.09699654579 0.00027094399868616593 -0.0001781988493081794
-0.2103715539 -0.09699654579 0.00024991391991104067 -0.00018010662304114924
-0.2050500959 -0.09699654579 0.00025351471654038674 -0.0001804570261493715
-0.1997286379 -0.09699654579 0.00026958415625891327 -0.00018151350339577204
-0.19440718 -0.09699654579 0.0002865143700483949 -0.00018439821100225975
-0.189085722 -0.09699654579 0.00029325875577117114 -0.00018137539259349456
-0.183764264 -0.09699654579 0.00029499216634990596 -0.0001751960976353246
-0.178442806 -0.09699654579 0.0002999778287001961 -0.00016896495385845442
-0.173121348 -0.09699654579 0.000300919450769339 -0.00015940906148856007
-0.16779989 -0.09699654579 0.00030139593793199887 -0.00014693225265416298
-0.1624784321 -0.09699654579 0.00030141956625962413 -0.0001314671898172803
-0.1571569741 -0.09699654579 0.0002986245039559372 -0.00011541107142323625
-0.1518355161 -0.09699654579 0.00029158465186226366 -0.00010046614906023668
-0.1465140581 -0.09699654579 0.00028378296550113716 -8.56582709144957e-05
-0.1411926001 -0.09699654579 0.00027521640967763714 -7.214812936722998e-05
-0.1358711421 -0.09699654579 0.00026349335379155774 -6.314779572395417e-05
-0.1305496842 -0.09699654579 0.0002510933614801207 -5.4235441461139276e-05
-0.1252282262 -0.09699654579 0.00023848630836172533 -4.5288477133139365e-05
-0.1199067682 -0.09699654579 0.0002265752387789791 -3.8899534963499756e-05
-0.1145853102 -0.09699654579 0.0002156877668007448 -3.348460220954571e-05
-0.1092638522 -0.09699654579 0.0002045568380732278 -2.8238380361180242e-05
-0.1039423943 -0.09699654579 0.0001930159644424678 -2.321303429783596e-05
-0.09862093627 -0.09699654579 0.0001841924427362577 -2.221783614770433e-05
-0.09329947084 -0.09699654579 0.00017519782945446278 -2.149494083610041e-05
-0.08797801286 -0.09699654579 0.00016604429573431416 -2.1031770835687492e-05
-0.08265655488 -0.09699654579 0.00015711780266157189 -2.0233638799494754e-05
-0.0773350969 -0.09699654579 0.00015138572005846056 -2.046691747127445e-05
-0.07201363891 -0.09699654579 0.00014568495396910148 -2.0785697042593948e-05
-0.06669218093 -0.09699654579 0.00013992344831863682 -2.1098005829252415e-05
-0.06137072667 -0.09699654579 0.00013400455472725354 -2.1505690070213582e-05
-0.05604926869 -0.09699654579 0.0001289618566175089 -2.1428598177943646e-05
-0.05072781071 -0.09699654579 0.00012424504580834978 -2.1272389805682435e-05
-0.045406349 -0.09699654579 0.00011953161915453572 -2.1112653428317263e-05
-0.04008489102 -0.09699654579 0.00011476499126525064 -2.0921984218253882e-05
-0.03476343304 -0.09699654579 0.00010979024220571865 -2.07244906716931e-05
-0.02944197692 -0.09699654579 0.0001047454995262249 -2.083582094738539e-05
-0.02412051894 -0.09699654579 9.975579619865866e-05 -2.0924060072621666e-05
-0.01879905909 -0.09699654579 9.473722285447675e-05 -2.103166711906862e-05
-0.01347760204 -0.09699654579 8.971597811386421e-05 -2.1201874033612083e-05
-0.00815614406 -0.09699654579 8.656554581869841e-05 -2.127144402596169e-05
-0.00283468538 -0.09699654579 8.497078785245777e-05 -2.131816691005659e-05
0.002486772602 -0.09699654579 8.356766857401875e-05 -2.143324284039499e-05
0.007808230817 -0.09699654579 8.21140148855886e-05 -2.157230125907431e-05
0.0131296888 -0.09699654579 8.064772137347196e-05 -2.165047723068334e-05
0.01845114678 -0.09699654579 7.935645952640672e-05 -1.945294927576916e-05
0.02377260476 -0.09699654579 7.838320632051353e-05 -1.561901999529454e-05
0.02909406275 -0.09699654579 7.759670812824752e-05 -1.1631704122206587e-05
0.03441552073 -0.09699654579 7.679360459532376e-05 -7.625825977171927e-06
0.03973697871 -0.09699654579 7.581219845040717e-05 -3.781021994387102e-06
0.04505843669 -0.09699654579 7.286598576440295e-05 2.9406357703289964e-07
0.05037989467 -0.09699654579 6.690988632754247e-05 4.707328521245546e-06
0.05570135266 -0.09699654579 6.08538992395263e-05 9.180241958836637e-06
0.06102281436 -0.09699654579 5.470698768990278e-05 1.3762211661188007e-05
0.06634426862 -0.09699654579 4.874653739178281e-05 1.813932172852031e-05
0.0716657266 -0.09699654579 4.273110590698417e-05 2.2517679593659618e-05
0.07698718458 -0.09699654579 3.6260011261661114e-05 2.2401476446948088e-05
0.08230864257 -0.09699654579 2.9862586843119102e-05 2.2003080194792345e-05
0.08763010055 -0.09699654579 2.3511509267378657e-05 2.169125777712038e-05
0.09295155853 -0.09699654579 1.7201329614073876e-05 2.142424174847107e-05
0.09827301651 -0.09699654579 1.0765856743912784e-05 2.110717716892995e-05
0.1035944745 -0.09699654579 5.698548557567545e-06 2.1037459893506786e-05
0.1089159325 -0.09699654579 3.350283884798203e-06 2.1483570527507698e-05
0.1142373979 -0.09699654579 8.026431039722093e-07 2.201437494258118e-05
0.1195588559 -0.09699654579 -1.9281271424980852e-06 2.2578850408420424e-05
0.1248803139 -0.09699654579 -4.565774919330949e-06 2.31421761709011e-05
0.1302017719 -0.09699654579 -7.140966410891772e-06 2.3686751601644217e-05
0.1355232298 -0.09699654579 -1.0057232448759189e-05 2.6717222015222093e-05
0.1408446878 -0.09699654579 -1.3349565773916488e-05 3.112411376322416e-05
0.1461661458 -0.09699654579 -1.6586126042829718e-05 3.5528427898155943e-05
0.1514876038 -0.09699654579 -1.985988381458643e-05 3.992434991454747e-05
0.1568090618 -0.09699654579 -2.3162799500513688e-05 4.432163404827814e-05
0.1621305197 -0.09699654579 -2.6518500971170227e-05 4.852791631005729e-05
0.1674519777 -0.09699654579 -3.438061903662981e-05 5.173275515762173e-05
0.1727734357 -0.09699654579 -4.3799551696328926e-05 5.4634492810458314e-05
0.1780948937 -0.09699654579 -5.344436503291232e-05 5.7668355813264185e-05
0.1834163517 -0.09699654579 -6.300886045173869e-05 6.066832911996982e-05
0.1887378097 -0.09699654579 -7.219700294295075e-05 6.33389586863011e-05
0.1940592676 -0.09699654579 -8.133227259551215e-05 6.601146734794345e-05
0.1993807256 -0.09699654579 -9.176714539703052e-05 6.371207285813977e-05
0.2047021836 -0.09699654579 -0.00010253762304132627 6.0042481510592004e-05
0.2100236416 -0.09699654579 -0.00011276917485738505 5.6648291149443784e-05
0.2153450996 -0.09699654579 -0.00012293790254653763 5.32148053319389e-05
0.2206665576 -0.09699654579 -0.0001331625270042958 4.977909929338379e-05
0.2259880155 -0.09699654579 -0.00014340252787657968 4.637738802981078e-05
0.2313094735 -0.09699654579 -0.00015048346005275192 4.044750242148534e-05
0.2366309315 -0.09699654579 -0.00015672427489732185 3.392192908020307e-05
0.2419523895 -0.09699654579 -0.00016295895801372582 2.7393463633555813e-05
0.2472738475 -0.09699654579 -0.0001692566273878871 2.0868779001688396e-05
0.2525953054 -0.09699654579 -0.00017547326984853503 1.4510637469152284e-05
0.2579167783 -0.09699654579 -0.00018162058416424374 8.220352286341528e-06
0.2632382214 -0.09699654579 -0.00018656494547761296 1.5759111448312546e-06
0.2685596943 -0.09699654579 -0.00019131985524014285 -5.055635628095185e-06
0.2738811374 -0.09699654579 -0.0001959298826585803 -1.1739383926548558e-05
0.2792026103 -0.09699654579 -0.00020037399843514988 -1.8392657573114323e-05
0.2845240533 -0.09699654579 -0.00020494656657989155 -2.50971202783248e-05
0.2898455262 -0.09699654579 -0.00020946326333258304 -3.174491857876557e-05
0.2951669693 -0.09699654579 -0.00021316351574280097 -4.216673782736288e-05
0.3004884422 -0.09699654579 -0.00021669253911675522 -5.269083945954556e-05
0.3058098853 -0.09699654579 -0.00022027821190516878 -6.31843794096759e-05
0.3111313581 -0.09699654579 -0.00022389203998817326 -7.367884611637218e-05
0.3164528012 -0.09699654579 -0.0002272688264663129 -8.405943250195324e-05
0.3217742741 -0.09699654579 -0.00023002931590430665 -9.424981109805685e-05
0.3270957172 -0.09699654579 -0.00022767557864470308 -0.00010756278458268758
0.3324171901 -0.09699654579 -0.00022539339429224997 -0.00012087540459422814
0.3377386332 -0.09699654579 -0.00022295122473042311 -0.00013389625373631868
0.343060106 -0.09699654579 -0.0002204423341390381 -0.00014665735863741245
0.3483815491 -0.09699654579 -0.0002180078673447437 -0.00015949508113726453
0.353703022 -0.09699654579 -0.00021295030126649488 -0.00017220701676768055
0.3590244651 -0.09699654579 -0.00020301105619121234 -0.00018435296534568762
0.364345938 -0.09699654579 -0.00019314568641848006 -0.00019599647105089966
0.369667381 -0.09699654579 -0.00018339441271688584 -0.00020765946316606685
0.3749888539 -0.09699654579 -0.0001737054289514331 -0.0002193711817177525
0.380310297 -0.09699654579 -0.0001641227660490421 -0.00023064626406402178
0.3856317699 -0.09699654579 -0.0001495779912423523 -0.0002388104116270691
0.390953213 -0.09699654579 -0.00013352575453240832 -0.00024633189998357906
0.3962746859 -0.09699654579 -0.00011727290389170406 -0.0002541669593023399
0.4015961289 -0.09699654579 -0.00010140003832881168 -0.00026146477185292965
0.4069176018 -0.09699654579 -8.581093983359389e-05 -0.0002684718495638179
0.4122390449 -0.09699654579 -6.82276283511003e-05 -0.00027240965721172215
0.4175605178 -0.09699654579 -4.7941841127690475e-05 -0.00027229890593410706
0.4228819609 -0.09699654579 -2.8570263565971104e-05 -0.0002719178153149266
0.4282034338 -0.09699654579 -9.453450608138023e-06 -0.0002715204932409969
0.4335248768 -0.09699654579 9.662408230707522e-06 -0.00027111652707616197
0.4388463497 -0.09699654579 2.908720904903684e-05 -0.00026826625670690397
0.4441677928 -0.09699654579 4.727800120922286e-05 -0.0002598555094445961
0.4494892657 -0.09699654579 6.545228184314638e-05 -0.0002515428027224241
0.4548107088 -0.09699654579 8.369008351958408e-05 -0.00024325381774964564
0.4601321816 -0.09699654579 0.0001016620029219163 -0.00023501968358151143
0.4654536247 -0.09699654579 0.00011699814371183186 -0.0002249662193809057
0.4707750976 -0.09699654579 0.00012979886338274527 -0.0002115982241394698
0.4760965407 -0.09699654579 0.0001428653840695255 -0.0001977843501869115
0.4814180136 -0.09699654579 0.00015569515806728763 -0.00018440538757501376
0.4867394567 -0.09699654579 0.00016827383331203538 -0.00017150586407568738
0.4920609295 -0.09699654579 0.00017625194393621662 -0.00015758244966120898
0.4973823726 -0.09699654579 0.0001830480382145821 -0.00014338352663578809
0.5027038455 -0.09699654579 0.00019001945055202433 -0.00012965006123728218
0.5080252886 -0.09699654579 0.0001968642479411342 -0.00011571530253684367
0.5133467317 -0.09699654579 0.00020205987011717418 -0.00010258810783779207
0.5186682343 -0.09699654579 0.0002053638208605071 -9.052137342554433e-05
0.5239896774 -0.09699654579 0.0002089865365190378 -7.878346726708542e-05
0.5293111205 -0.09699654579 0.00021253264038763388 -6.688017417471523e-05
0.5346325636 -0.09699654579 0.00021532678463163888 -5.584463800853281e-05
0.5399540663 -0.09699654579 0.00021781088174297578 -4.6214031406881593e-05
0.5452755094 -0.09699654579 0.00022038093695107055 -3.663856178991396e-05
0.5505969524 -0.09699654579 0.00022284717758543762 -2.700963615864153e-05
0.5559183955 -0.09699654579 0.00022500687234251605 -1.871045517957014e-05
0.5612398982 -0.09699654579 0.0002273217437683379 -1.0975090259193603e-05
0.5665613413 -0.09699654579 0.00022965733124087287 -3.2642358348150246e-06
0.5718827844 -0.09699654579 0.00023172032118071146 3.956973806692477e-06
0.5772042274 -0.09699654579 0.0002339517112225043 1.0221268600845648e-05
0.5825257301 -0.09699654579 0.00023618917253229163 1.6484403496682552e-05
0.5878471732 -0.09699654579 0.00023828466511797633 2.2106670327518903e-05
0.5931686163 -0.09699654579 0.00024079253338550754 2.681482586200566e-05
0.5984900594 -0.09699654579 0.00024304193102840508 3.138996183419176e-05
0.6038115621 -0.09699654579 0.00024592047410642486 3.4919669904821905e-05
0.6091330051 -0.09699654579 0.0002488296702730365 3.768165473729424e-05
0.6144544482 -0.09699654579 0.0002521766259822664 4.010503336535354e-05
0.6197758913 -0.09699654579 0.00025635184932019386 4.105912556252748e-05
0.625097394 -0.09699654579 0.00026083499987188005 4.176735750511359e-05
0.6304188371 -0.09699654579 0.0002659608468836382 4.073360507065447e-05
0.6357402802 -0.09699654579 0.0002710956524831921 3.881692673153137e-05
0.6410617828 -0.09699654579 0.0002776488789262074 3.6214161183183705e-05
0.6463832259 -0.09699654579 0.00028527660403567987 3.186083332798925e-05
0.651704669 -0.09699654579 0.0002939073064080176 2.649024709927087e-05
0.6570261121 -0.09699654579 0.0003049144320329388 1.958445836444908e-05
0.6623476148 -0.09699654579 0.0003171224001740701 1.1740135840776405e-05
0.6676690578 -0.09699654579 0.00033092450742323734 2.035857374859188e-06
0.6729905009 -0.09699654579 0.0003472858563307727 -8.969242401982491e-06
0.678311944 -0.09699654579 0.00036569379170341295 -2.1719176980538965e-05
0.6836334467 -0.09699654579 0.00038676816550972963 -3.535037684802273e-05
0.6889548898 -0.09699654579 0.00041211054866723316 -5.01071387980751e-05
0.6942763329 -0.09699654579 0.00044128644335132174 -6.693883985588162e-05
0.6995977759 -0.09699654579 0.0004744641495062271 -8.550438826682836e-05
0.7049192786 -0.09699654579 0.0005122702742891703 -0.00010396429567378484
0.7102407217 -0.09699654579 0.0005559317109450996 -0.0001230869076513115
0.7155621648 -0.09699654579 0.0006070559738186393 -0.00014226316188022006
0.7208836079 -0.09699654579 0.000664550617686074 -0.00016278248809143556
0.7262051105 -0.09699654579 0.0007296751711650374 -0.00018184061319485186
0.7315265536 -0.09699654579 0.0008013944789816085 -0.00019794033391403875
0.7368479967 -0.09699654579 0.0008830018487024236 -0.00021330485895405723
0.7421694398 -0.09699654579 0.0009751648018194571 -0.00022308137539706215
0.7474909425 -0.09699654579 0.001076412084296286 -0.0002299885541409297
0.7528123856 -0.09699654579 0.0011886177991117287 -0.00022834349508791147
0.7581338286 -0.09699654579 0.0013111762730725655 -0.00021774033464185292
-0.3008363545 -0.09367749095 0.00027442983132506106 -0.0003265544018473515
-0.2955148816 -0.09367749095 0.00027897469803396383 -0.00032173329574365276
-0.2901934385 -0.09367749095 0.00028124647099862766 -0.00031723004758958825
-0.2848719656 -0.09367749095 0.0002844692167577145 -0.00031574632479043396
-0.2795505226 -0.09367749095 0.0002853736063278196 -0.0003144959480696201
-0.2742290497 -0.09367749095 0.00028605049022659395 -0.00031482226343422797