VARIABLES = X,Y,phix,phiy
ZONE I=200,J=200,F=POINT 
-0.3008363545 -0.1003156006 -0.0008657473245156351 0.00023475148341834206
-0.2955148816 -0.1003156006 -0.000862596242834791 0.00023653361523800324
-0.2901934385 -0.1003156006 -0.0008619597842144641 0.000240614509497673
-0.2848719656 -0.1003156006 -0.0008615623167134193 0.00024564946335548605
-0.2795505226 -0.1003156006 -0.0008627208746614584 0.0002526564663189049
-0.2742290497 -0.1003156006 -0.0008662652782473562 0.00026137167589113764
-0.2689076066 -0.1003156006 -0.0008700149272465444 0.0002720761734279209
-0.2635861337 -0.1003156006 -0.0008686348183298776 0.0002801608967004386
-0.2582646906 -0.1003156006 -0.0008656238843941643 0.0002867425440875872
-0.2529432178 -0.1003156006 -0.0008624380537798959 0.00029294959581945977
-0.2476217598 -0.1003156006 -0.0008592961943242604 0.000298898068653309
-0.2423003018 -0.1003156006 -0.0008589337737839074 0.00030066550493181016
-0.2369788438 -0.1003156006 -0.0008612445739108622 0.00030014470897427536
-0.2316573858 -0.1003156006 -0.0008639900471291597 0.0002979617887419046
-0.2263359278 -0.1003156006 -0.0008665535600624829 0.00029673137337750936
-0.2210144699 -0.1003156006 -0.0008727436456394932 0.00030399054548708196
-0.2156930119 -0.1003156006 -0.000878850521980066 0.00031173584426715667
-0.2103715539 -0.1003156006 -0.0008845473165539131 0.0003206768860552305
-0.2050500959 -0.1003156006 -0.0008874656995446684 0.00032449093262266733
-0.1997286379 -0.1003156006 -0.0008899713333444207 0.00032860728019565793
-0.19440718 -0.1003156006 -0.0008945454064332518 0.00033249210217143655
-0.189085722 -0.1003156006 -0.0009048112616187606 0.0003363415422547027
-0.183764264 -0.1003156006 -0.0009184137641019283 0.0003393419251587508
-0.178442806 -0.1003156006 -0.0009311135394254093 0.0003414267508562228
-0.173121348 -0.1003156006 -0.0009403907704500843 0.00033637798145374137
-0.16779989 -0.1003156006 -0.0009486189346385813 0.0003298962130279959
-0.1624784321 -0.1003156006 -0.0009585255863590358 0.0003249276499708879
-0.1571569741 -0.1003156006 -0.0009669587497495458 0.00031868530867256855
-0.1518355161 -0.1003156006 -0.000976118857922319 0.0003127070806213342
-0.1465140581 -0.1003156006 -0.0009856319803394126 0.00030725948564148253
-0.1411926001 -0.1003156006 -0.0009946448523802055 0.0003015781512936184
-0.1358711421 -0.1003156006 -0.0010015058949412365 0.0002940400189003212
-0.1305496842 -0.1003156006 -0.0010084001050945418 0.000286508034971884
-0.1252282262 -0.1003156006 -0.0010160209147775762 0.00027829263515989855
-0.1199067682 -0.1003156006 -0.0010209171866926983 0.000269571217184931
-0.1145853102 -0.1003156006 -0.001025066297832426 0.0002604352607469035
-0.1092638522 -0.1003156006 -0.0010290843068184888 0.00025091077172137525
-0.1039423943 -0.1003156006 -0.001033046511318287 0.0002416592607652255
-0.09862093627 -0.1003156006 -0.0010350903623743445 0.00023218445466446244
-0.09329947084 -0.1003156006 -0.0010370394110294215 0.00022261407388892581
-0.08797801286 -0.1003156006 -0.001039016932085153 0.00021304733502670436
-0.08265655488 -0.1003156006 -0.0010410564401622001 0.00020358110629585579
-0.0773350969 -0.1003156006 -0.0010425942355026566 0.00019287910701494703
-0.07201363891 -0.1003156006 -0.0010440598328142182 0.00018222669567082836
-0.06669218093 -0.1003156006 -0.0010455336179208408 0.00017157571090292302
-0.06137072667 -0.1003156006 -0.001047275307616785 0.0001606804484742175
-0.05604926869 -0.1003156006 -0.001045904478617068 0.00014980025292698712
-0.05072781071 -0.1003156006 -0.0010437076920189166 0.00013879832335922303
-0.045406349 -0.1003156006 -0.001041533888037432 0.00012794418374183444
-0.04008489102 -0.1003156006 -0.0010392793684003932 0.00011683421611958181
-0.03476343304 -0.1003156006 -0.0010370568711218465 0.00010726602414302143
-0.02944197692 -0.1003156006 -0.00103468237296563 0.00010094377412330979
-0.02412051894 -0.1003156006 -0.001032339972900557 9.469230293123177e-05
-0.01879905909 -0.1003156006 -0.001029913920578164 8.854032918782853e-05
-0.01347760204 -0.1003156006 -0.0010275954301005939 8.228477109875351e-05
-0.00815614406 -0.1003156006 -0.0010266948297285412 7.566293483772406e-05
-0.00283468538 -0.1003156006 -0.0010268490297693255 6.865145981706392e-05
0.002486772602 -0.1003156006 -0.0010273584527352292 6.165263774845462e-05
0.007808230817 -0.1003156006 -0.001027872000808489 5.463904692672513e-05
0.0131296888 -0.1003156006 -0.0010281319670289268 4.7627853896935504e-05
0.01845114678 -0.1003156006 -0.0010274881712669544 3.9005977138332714e-05
0.02377260476 -0.1003156006 -0.0010260527975558815 2.8999874644173986e-05
0.02909406275 -0.1003156006 -0.0010247645306312252 1.8751989746631326e-05
0.03441552073 -0.1003156006 -0.0010234547399323598 8.503155464460461e-06
0.03973697871 -0.1003156006 -0.001022036341986408 -1.5298446428404878e-06
0.04505843669 -0.1003156006 -0.0010182108536778527 -1.0487322999308257e-05
0.05037989467 -0.1003156006 -0.0010106401346213756 -1.741999875464963e-05
0.05570135266 -0.1003156006 -0.0010028489228011545 -2.4437520836766927e-05
0.06102281436 -0.1003156006 -0.000995007903340607 -3.145851339044377e-05
0.06634426862 -0.1003156006 -0.0009873721263857222 -3.8392889021994714e-05
0.0716657266 -0.1003156006 -0.0009798414078058262 -4.529809062949777e-05
0.07698718458 -0.1003156006 -0.0009760053276362357 -4.647804031932473e-05
0.08230864257 -0.1003156006 -0.0009723972765537182 -4.72225238593475e-05
0.08763010055 -0.1003156006 -0.0009687593788669549 -4.772144824113026e-05
0.09295155853 -0.1003156006 -0.0009651292737548556 -4.844378351946547e-05
0.09827301651 -0.1003156006 -0.0009614908053004125 -4.9317969837448884e-05
0.1035944745 -0.1003156006 -0.0009594433716683561 -5.125015211867244e-05
0.1089159325 -0.1003156006 -0.000960925204089666 -5.5421442847851736e-05
0.1142373979 -0.1003156006 -0.0009624334664747514 -5.959508707392289e-05
0.1195588559 -0.1003156006 -0.0009634358004875852 -6.370667633760046e-05
0.1248803139 -0.1003156006 -0.0009646406520695218 -6.782970382487373e-05
0.1302017719 -0.1003156006 -0.0009659670703518958 -7.198045141487317e-05
0.1355232298 -0.1003156006 -0.000965276117254152 -7.698591990384626e-05
0.1408446878 -0.1003156006 -0.0009629603430556819 -8.253795222458106e-05
0.1461661458 -0.1003156006 -0.0009607570505910363 -8.788062824273548e-05
0.1514876038 -0.1003156006 -0.0009585326703288426 -9.322410345563554e-05
0.1568090618 -0.1003156006 -0.0009563088558377547 -9.856907022841367e-05
0.1621305197 -0.1003156006 -0.0009541241022297699 -0.0001039341386747966
0.1674519777 -0.1003156006 -0.0009512115269221946 -0.00010485974560576454
0.1727734357 -0.1003156006 -0.000947718414447591 -0.00010384893304065422
0.1780948937 -0.1003156006 -0.0009442407545435994 -0.00010283770806579082
0.1834163517 -0.1003156006 -0.0009407834357995289 -0.00010182328169344711
0.1887378097 -0.1003156006 -0.0009375945820925879 -0.00010093447769766347
0.1940592676 -0.1003156006 -0.0009346945470881589 -0.00010032453518751187
0.1993807256 -0.1003156006 -0.0009402756445946807 -9.652542587402442e-05
0.2047021836 -0.1003156006 -0.0009485929547934584 -9.167390349926972e-05
0.2100236416 -0.1003156006 -0.0009569150120945466 -8.683362016633502e-05
0.2153450996 -0.1003156006 -0.000965030673748091 -8.319129334320693e-05
0.2206665576 -0.1003156006 -0.0009732059935923387 -7.911696647132688e-05
0.2259880155 -0.1003156006 -0.000981359151560048 -7.502309882949522e-05
0.2313094735 -0.1003156006 -0.0010012675108412887 -7.916291838748542e-05
0.2366309315 -0.1003156006 -0.0010231433710453425 -8.626422882314957e-05
0.2419523895 -0.1003156006 -0.0010445060195228071 -9.354116741452467e-05
0.2472738475 -0.1003156006 -0.0010659326805385937 -0.00010079441879486535
0.2525953054 -0.1003156006 -0.001087603601494043 -0.00010799082185260274
0.2579167783 -0.1003156006 -0.001108181429369131 -0.00011547637890858175
0.2632382214 -0.1003156006 -0.0011252597801597996 -0.0001389012576373436
0.2685596943 -0.1003156006 -0.0011417014022492274 -0.00016655028861935816
0.2738811374 -0.1003156006 -0.001158779329673792 -0.00019476099348258923
0.2792026103 -0.1003156006 -0.0011752823602966434 -0.00022249712950168617
0.2845240533 -0.1003156006 -0.0011907171679103937 -0.00024923792349291053
0.2898455262 -0.1003156006 -0.0012060574670578524 -0.00027597782479009137
0.2951669693 -0.1003156006 -0.0012057732537624354 -0.0003068747323921065
0.3004884422 -0.1003156006 -0.0012030458084568772 -0.0003381742483745462
0.3058098853 -0.1003156006 -0.0012005622348338304 -0.00036829300248867946
0.3111313581 -0.1003156006 -0.0011980398801353588 -0.00039840710822871303
0.3164528012 -0.1003156006 -0.0011955755618565968 -0.00042852362229685076
0.3217742741 -0.1003156006 -0.0011930464349775344 -0.0004585743445706227
0.3270957172 -0.1003156006 -0.0011827139141565412 -0.00048192830612372225
0.3324171901 -0.1003156006 -0.0011721186832137345 -0.0005052751194712692
0.3377386332 -0.1003156006 -0.0011615657714128594 -0.0005286182254083261
0.343060106 -0.1003156006 -0.001151059544864424 -0.0005519518506232972
0.3483815491 -0.1003156006 -0.001141083917425959 -0.000574961301452805
0.353703022 -0.1003156006 -0.0011306916909567333 -0.0005978077009302346
0.3590244651 -0.1003156006 -0.0011196534423628278 -0.0006203021029138645
0.364345938 -0.1003156006 -0.0011085962035255646 -0.0006428063314278352
0.369667381 -0.1003156006 -0.0010974516116621757 -0.0006648366914915749
0.3749888539 -0.1003156006 -0.0010863404552703653 -0.0006870129252702688
0.380310297 -0.1003156006 -0.0010752957596597422 -0.0007091811439095754
0.3856317699 -0.1003156006 -0.0010591525977096303 -0.0007312114940950574
0.390953213 -0.1003156006 -0.0010419382017668236 -0.0007524215646531607
0.3962746859 -0.1003156006 -0.0010247402168369647 -0.0007734753926945543
0.4015961289 -0.1003156006 -0.0010075671422031507 -0.0007945443069924558
0.4069176018 -0.1003156006 -0.0009904482555666678 -0.0008156985373728357
0.4122390449 -0.1003156006 -0.0009714650229634972 -0.0008341704358208702
0.4175605178 -0.1003156006 -0.0009490461101600237 -0.0008499748828859681
0.4228819609 -0.1003156006 -0.0009264500550782006 -0.0008658426186749615
0.4282034338 -0.1003156006 -0.0009038080725671162 -0.0008817864512086842
0.4335248768 -0.1003156006 -0.0008820936813718445 -0.0008971994440750482
0.4388463497 -0.1003156006 -0.0008596816111084357 -0.000911454501431937
0.4441677928 -0.1003156006 -0.0008352191060449664 -0.0009225340123850856
0.4494892657 -0.1003156006 -0.0008108099628582586 -0.0009335449795536506
0.4548107088 -0.1003156006 -0.0007867271796389726 -0.0009442932074050142
0.4601321816 -0.1003156006 -0.000762569863181735 -0.0009551944850199885
0.4654536247 -0.1003156006 -0.0007371458261394664 -0.0009647727815467649
0.4707750976 -0.1003156006 -0.0007099706621357951 -0.0009719956972725197
0.4760965407 -0.1003156006 -0.0006832607397764033 -0.0009787047460407747
0.4814180136 -0.1003156006 -0.0006566087096270114 -0.0009854087168585984
0.4867394567 -0.1003156006 -0.0006298330936406572 -0.0009921311636221797
0.4920609295 -0.1003156006 -0.0005991455573124327 -0.0009936773770930724
0.4973823726 -0.1003156006 -0.0005677876128497948 -0.0009936819747737894
0.5027038455 -0.1003156006 -0.0005363572644052185 -0.000993744994098601
0.5080252886 -0.1003156006 -0.0005049181844433659 -0.0009937890350855314
0.5133467317 -0.1003156006 -0.0004739708609057688 -0.0009888384656148318
0.5186682343 -0.1003156006 -0.00044079599869407396 -0.0009782685322619416
0.5239896774 -0.1003156006 -0.0004074760166832226 -0.000967705351855164
0.5293111205 -0.1003156006 -0.0003746307222729773 -0.0009571988621984192
0.5346325636 -0.1003156006 -0.0003445313698388061 -0.0009427899294099021
0.5399540663 -0.1003156006 -0.00031512613119775496 -0.0009224351113863114
0.5452755094 -0.1003156006 -0.0002852117514213302 -0.0009018036769956293
0.5505969524 -0.1003156006 -0.0002562946930514187 -0.0008817929649737407
0.5559183955 -0.1003156006 -0.00023176896607177022 -0.000856692491780538
0.5612398982 -0.1003156006 -0.00020710134090736335 -0.0008282528353651095
0.5665613413 -0.1003156006 -0.00018260382098015204 -0.0008000598751571373
0.5718827844 -0.1003156006 -0.0001611902607079835 -0.0007708027780493945
0.5772042274 -0.1003156006 -0.0001418443219615175 -0.0007364981083436706
0.5825257301 -0.1003156006 -0.00012241943517956206 -0.0007020765369952924
0.5878471732 -0.1003156006 -0.00010592520903514294 -0.0006664277516766661
0.5931686163 -0.1003156006 -9.19464528701577e-05 -0.0006271215716313615
0.5984900594 -0.1003156006 -7.737386640894148e-05 -0.0005879568223625263
0.6038115621 -0.1003156006 -6.689966442250792e-05 -0.000544976592621096
0.6091330051 -0.1003156006 -5.75060590242741e-05 -0.0005018960403098526
0.6144544482 -0.1003156006 -5.060687434138648e-05 -0.00045559664778532696
0.6197758913 -0.1003156006 -4.6826298197594054e-05 -0.00040814719659232606
0.625097394 -0.1003156006 -4.5049059431540854e-05 -0.0003594659287497878
0.6304188371 -0.1003156006 -4.651155350850017e-05 -0.00030762762825340886
0.6357402802 -0.1003156006 -5.0607321678897486e-05 -0.0002561367725274223
0.6410617828 -0.1003156006 -5.687547074185009e-05 -0.0002024308882952922
0.6463832259 -0.1003156006 -6.609838214066882e-05 -0.00014688612226950685
0.651704669 -0.1003156006 -7.717144750710666e-05 -9.038170663479754e-05
0.6570261121 -0.1003156006 -9.309344215979214e-05 -3.2842264036588995e-05
0.6623476148 -0.1003156006 -0.00011124146205606736 2.6200872810004965e-05
0.6676690578 -0.1003156006 -0.00013186066560868942 8.696785421289358e-05
0.6729905009 -0.1003156006 -0.0001576163887864812 0.00014954905143430851
0.678311944 -0.1003156006 -0.00018607867895544777 0.00021287683894888554
0.6836334467 -0.1003156006 -0.0002173857315470849 0.0002780882722806856
0.6889548898 -0.1003156006 -0.00025256253729262094 0.00034467127941707537
0.6942763329 -0.1003156006 -0.00029194576081749 0.0004148277074259592
0.6995977759 -0.1003156006 -0.00033470881774473035 0.0004863123529485766
0.7049192786 -0.1003156006 -0.0003818897616373041 0.0005586800912841828
0.7102407217 -0.1003156006 -0.0004335223652607452 0.0006334601119134858
0.7155621648 -0.1003156006 -0.0004907835959360446 0.0007109951937118188
0.7208836079 -0.1003156006 -0.0005535312204833182 0.0007907353903044098
0.7262051105 -0.1003156006 -0.0006214696805301284 0.0008723780679343311
0.7315265536 -0.1003156006 -0.0006958071011204862 0.0009566873422406285
0.7368479967 -0.1003156006 -0.0007786042785780585 0.0010445223593675231
0.7421694398 -0.1003156006 -0.0008684933388299909 0.0011362654816282388
0.7474909425 -0.1003156006 -0.0009663581311761057 0.0012250276473280766
0.7528123856 -0.1003156006 -0.0010731724775734062 0.0013208774701206785
0.7581338286 -0.1003156006 -0.0011894972019685119 0.00141753512018357
-0.3008363545 -0.09699654579 -0.0008620962137488057 0.0002339202623470089
-0.2955148816 -0.09699654579 -0.000859145213232525 0.00023460036809840417
-0.2901934385 -0.09699654579 -0.0008550436131319037 0.00023760141039595476
-0.2848719656 -0.09699654579 -0.0008551177950198686 0.00024343309324059947
-0.2795505226 -0.09699654579 -0.0008558222735515459 0.00024981245533382075
-0.2742290497 -0.09699654579 -0.0008582841948130394 0.0002587089409800151
-0.2689076066 -0.09699654579 -0.0008630292039890194 0.00027054533015979514
-0.2635861337 -0.09699654579 -0.0008635394805432831 0.00028208256377314694
-0.2582646906 -0.09699654579 -0.0008596380380892658 0.00028932794884677456
-0.2529432178 -0.09699654579 -0.0008560994527990047 0.0002955649859381484
-0.2476217598 -0.09699654579 -0.0008532605486750108 0.000300545873877032
-0.2423003018 -0.09699654579 -0.0008517429920577133 0.0003032235698195027
-0.2369788438 -0.09699654579 -0.0008545364958531806 0.0003013204268421864
-0.2316573858 -0.09699654579 -0.0008572262104283749 0.0002987915145771366
-0.2263359278 -0.09699654579 -0.000859425199099927 0.0002955877907776544
-0.2210144699 -0.09699654579 -0.0008644686608902272 0.0003017667518520984
-0.2156930119 -0.09699654579 -0.0008701092759594497 0.00031103051411155607
-0.2103715539 -0.09699654579 -0.0008736978018027909 0.00032276399819944546
-0.2050500959 -0.09699654579 -0.0008758460856146831 0.0003295151589423763
-0.1997286379 -0.09699654579 -0.0008805233118999638 0.0003333861842820158
-0.19440718 -0.09699654579 -0.0008850540068394186 0.00033721451987594943
-0.189085722 -0.09699654579 -0.0008949648314467946 0.0003384393425357291
-0.183764264 -0.09699654579 -0.0009072512968986313 0.0003386189507950148
-0.178442806 -0.09699654579 -0.0009198658290179928 0.0003359679686147655
-0.173121348 -0.09699654579 -0.0009300991644054249 0.0003316702079678203
-0.16779989 -0.09699654579 -0.0009403612652907823 0.00032822789098898485
-0.1624784321 -0.09699654579 -0.0009502398575984581 0.0003280857428596143
-0.1571569741 -0.09699654579 -0.0009603411721275221 0.0003250134785417988
-0.1518355161 -0.09699654579 -0.0009700159587715374 0.0003201974813367427
-0.1465140581 -0.09699654579 -0.0009806788912597373 0.0003145809690255983
-0.1411926001 -0.09699654579 -0.0009906358055954073 0.0003084017359698066
-0.1358711421 -0.09699654579 -0.0009983787032620001 0.0003000530256334865
-0.1305496842 -0.09699654579 -0.0010065129393208529 0.0002913123026609842
-0.1252282262 -0.09699654579 -0.0010144641303824905 0.00028252118708066003
-0.1199067682 -0.09699654579 -0.00101970738664277 0.0002727643453796546
-0.1145853102 -0.09699654579 -0.0010233900966605597 0.0002631155247462604
-0.1092638522 -0.09699654579 -0.001027238729521706 0.0002532759749718997
-0.1039423943 -0.09699654579 -0.0010314300475522523 0.00024332745909293904
-0.09862093627 -0.09699654579 -0.001033559725618051 0.00023372405354547934
-0.09329947084 -0.09699654579 -0.0010357909540600204 0.00022406150885377312
-0.08797801286 -0.09699654579 -0.0010381918427408605 0.00021435975916444231
-0.08265655488 -0.09699654579 -0.0010404754032736115 0.00020480021998434537
-0.0773350969 -0.09699654579 -0.0010422922300443154 0.0001938536721174687
-0.07201363891 -0.09699654579 -0.0010442969905809303 0.00018272653357928365
-0.06669218093 -0.09699654579 -0.001046418172260529 0.00017163060491734612
-0.06137072667 -0.09699654579 -0.0010489238547600483 0.00016054484059179177
-0.05604926869 -0.09699654579 -0.001047949778223682 0.00014918654625239745
-0.05072781071 -0.09699654579 -0.001045938933380658 0.00013790119678923595
-0.045406349 -0.09699654579 -0.0010439801069504447 0.00012661635906918004
-0.04008489102 -0.09699654579 -0.0010418126976385856 0.00011513403614918403
-0.03476343304 -0.09699654579 -0.0010396386592900638 0.00010534753288240096
-0.02944197692 -0.09699654579 -0.001037307058309522 9.957063661214527e-05
-0.02412051894 -0.09699654579 -0.0010350486896612899 9.371539045288296e-05
-0.01879905909 -0.09699654579 -0.0010327368654134866 8.79347052874164e-05
-0.01347760204 -0.09699654579 -0.0010303866071699466 8.227256690506793e-05
-0.00815614406 -0.09699654579 -0.0010299367275678466 7.589481702448984e-05
-0.00283468538 -0.09699654579 -0.0010308305335756515 6.8870686653601e-05
0.002486772602 -0.09699654579 -0.0010318456822162663 6.183336040099639e-05
0.007808230817 -0.09699654579 -0.0010328588716218032 5.4812664581113e-05
0.0131296888 -0.09699654579 -0.0010337989932236989 4.778615004210098e-05
0.01845114678 -0.09699654579 -0.0010336034595582106 3.875003351367844e-05
0.02377260476 -0.09699654579 -0.0010324927213616528 2.8144446368252544e-05
0.02909406275 -0.09699654579 -0.0010314693836134304 1.732239332788042e-05
0.03441552073 -0.09699654579 -0.0010305066805454722 6.4543857481972096e-06
0.03973697871 -0.09699654579 -0.0010294095099807874 -4.168153413241222e-06
0.04505843669 -0.09699654579 -0.0010253381443416836 -1.3602886198559239e-05
0.05037989467 -0.09699654579 -0.0010168825107678375 -2.0778120429998984e-05
0.05570135266 -0.09699654579 -0.0010084034075703333 -2.7982501457388062e-05
0.06102281436 -0.09699654579 -0.0009996584865599257 -3.5234726285648825e-05
0.06634426862 -0.09699654579 -0.0009913001101063594 -4.237712356124163e-05
0.0716657266 -0.09699654579 -0.0009829161361247416 -4.9516173106194355e-05
0.07698718458 -0.09699654579 -0.0009789316309163534 -4.9825675413064586e-05
0.08230864257 -0.09699654579 -0.0009750838796475345 -4.9754617851135385e-05
0.08763010055 -0.09699654579 -0.0009712724884208205 -4.9756821840062823e-05
0.09295155853 -0.09699654579 -0.000967486773795669 -4.990111693288539e-05
0.09827301651 -0.09699654579 -0.0009636956479035299 -4.997198587313508e-05
0.1035944745 -0.09699654579 -0.0009618240801841589 -5.146753469455691e-05
0.1089159325 -0.09699654579 -0.0009639650183635648 -5.571329664421047e-05
0.1142373979 -0.09699654579 -0.0009658342165547771 -5.991852592347516e-05
0.1195588559 -0.09699654579 -0.0009674801397537427 -6.413406784083142e-05
0.1248803139 -0.09699654579 -0.0009691201114279166 -6.834404520045535e-05
0.1302017719 -0.09699654579 -0.0009709426185748374 -7.253930388833011e-05
0.1355232298 -0.09699654579 -0.0009700505354038127 -7.794506832494954e-05
0.1408446878 -0.09699654579 -0.0009673925478635246 -8.383035639056772e-05
0.1461661458 -0.09699654579 -0.0009647388133691965 -8.972776295940726e-05
0.1514876038 -0.09699654579 -0.0009622723119733056 -9.562311585144565e-05
0.1568090618 -0.09699654579 -0.0009598348392105214 -0.00010152057049463698
0.1621305197 -0.09699654579 -0.0009574430163801807 -0.00010717033024579362
0.1674519777 -0.09699654579 -0.000953500902912004 -0.00010748480232812152
0.1727734357 -0.09699654579 -0.0009490880990596977 -0.00010579816133932777
0.1780948937 -0.09699654579 -0.0009443062220188902 -0.0001038064236300762
0.1834163517 -0.09699654579 -0.0009397078984802192 -0.00010193137981973684
0.1887378097 -0.09699654579 -0.0009356210256055555 -0.00010057705665804208
0.1940592676 -0.09699654579 -0.000931593934941013 -9.922323991687397e-05
0.1993807256 -0.09699654579 -0.0009374212244211088 -9.350815055119673e-05
0.2047021836 -0.09699654579 -0.0009459142589334067 -8.659523063848333e-05
0.2100236416 -0.09699654579 -0.0009541961974395928 -8.111920628296267e-05
0.2153450996 -0.09699654579 -0.0009623312200173386 -7.57856255264784e-05
0.2206665576 -0.09699654579 -0.000970543345354202 -7.045393349121423e-05
0.2259880155 -0.09699654579 -0.0009787684635885687 -6.510993703575018e-05
0.2313094735 -0.09699654579 -0.0009998465243145872 -6.905823650101989e-05
0.2366309315 -0.09699654579 -0.0010242019441371814 -7.54332549211607e-05
0.2419523895 -0.09699654579 -0.0010485006034589765 -8.181031569867244e-05
0.2472738475 -0.09699654579 -0.0010728175879445262 -8.818536346370104e-05
0.2525953054 -0.09699654579 -0.0010959179063465938 -9.492391264038106e-05
0.2579167783 -0.09699654579 -0.0011181037612195818 -0.00010195050653932268
0.2632382214 -0.09699654579 -0.0011371104474420866 -0.0001278291986461783
0.2685596943 -0.09699654579 -0.0011554658243677447 -0.0001577274803700508
0.2738811374 -0.09699654579 -0.0011730488632835847 -0.00018680962574685745
0.2792026103 -0.09699654579 -0.001189733146888501 -0.00021507725560407126
0.2845240533 -0.09699654579 -0.0012065503123393434 -0.00024341332787774698
0.2898455262 -0.09699654579 -0.001223808804928355 -0.00027227694154716625
0.2951669693 -0.09699654579 -0.0012224550728322662 -0.0003046755670508382
0.3004884422 -0.09699654579 -0.0012192198626010285 -0.0003367816627504724
0.3058098853 -0.09699654579 -0.0012162084695637792 -0.0003689053346387702
0.3111313581 -0.09699654579 -0.001213122527441271 -0.0004010282341493031
0.3164528012 -0.09699654579 -0.0012103276974906193 -0.0004325598397382338
0.3217742741 -0.09699654579 -0.0012072296572919134 -0.00046299041577025924
0.3270957172 -0.09699654579 -0.0011961141026304814 -0.00048660715411239874
0.3324171901 -0.09699654579 -0.001185038650606535 -0.0005102281412217747
0.3377386332 -0.09699654579 -0.0011742546159260886 -0.0005337685222457453
0.343060106 -0.09699654579 -0.001163607391825681 -0.0005572624676453663
0.3483815491 -0.09699654579 -0.0011528135418228714 -0.00058072838504791
0.353703022 -0.09699654579 -0.0011419513188105181 -0.0006042094689440425
0.3590244651 -0.09699654579 -0.0011310655175284941 -0.0006274276940391309
0.364345938 -0.09699654579 -0.0011200761397883489 -0.000650229407961714
0.369667381 -0.09699654579 -0.001109059699538926 -0.0006730190440192921
0.3749888539 -0.09699654579 -0.0010981217718848244 -0.0006957731575820174
0.380310297 -0.09699654579 -0.0010870940723228064 -0.0007183126977287656
0.3856317699 -0.09699654579 -0.0010707820960207798 -0.0007403027397111847
0.390953213 -0.09699654579 -0.0010530415158406573 -0.0007624535176192755
0.3962746859 -0.09699654579 -0.0010351317398568725 -0.0007847683160795747
0.4015961289 -0.09699654579 -0.0010175406580166578 -0.0008066870092964701
0.4069176018 -0.09699654579 -0.0010000786103549876 -0.0008281398941360873
0.4122390449 -0.09699654579 -0.0009801054061963704 -0.0008473279903962422
0.4175605178 -0.09699654579 -0.0009566866179942183 -0.0008635745796362497
0.4228819609 -0.09699654579 -0.0009337261057937611 -0.0008795766029721304
0.4282034338 -0.09699654579 -0.0009110924916553826 -0.0008953924507569117
0.4335248768 -0.09699654579 -0.0008884121620708096 -0.0009112332233896431
0.4388463497 -0.09699654579 -0.0008646800099364672 -0.0009259970678143024
0.4441677928 -0.09699654579 -0.0008397671902020165 -0.000937236137561776
0.4494892657 -0.09699654579 -0.0008149370156508815 -0.0009485166288863399
0.4548107088 -0.09699654579 -0.0007901395605209686 -0.0009598207219399223
0.4601321816 -0.09699654579 -0.0007654421574679935 -0.0009710564638210063
0.4654536247 -0.09699654579 -0.0007399068845147336 -0.0009805496906100174
0.4707750976 -0.09699654579 -0.0007123245980235215 -0.000988211485739657
0.4760965407 -0.09699654579 -0.0006844858715142618 -0.000996327383498703
0.4814180136 -0.09699654579 -0.0006569442552492432 -0.001003993528292223
0.4867394567 -0.09699654579 -0.0006298118876916934 -0.0010112374178759343
0.4920609295 -0.09699654579 -0.0005981265703795817 -0.0010131988001779652
0.4973823726 -0.09699654579 -0.0005651841787185005 -0.0010138223599524825
0.5027038455 -0.09699654579 -0.0005329493929342382 -0.0010139634145482509
0.5080252886 -0.09699654579 -0.0005005127064886868 -0.0010143519428995739
0.5133467317 -0.09699654579 -0.0004668352539601443 -0.0010095644277677354
0.5186682343 -0.09699654579 -0.0004320228944819382 -0.0009986901692530267
0.5239896774 -0.09699654579 -0.0003988356783715356 -0.0009880053445636668
0.5293111205 -0.09699654579 -0.00036481329923085653 -0.0009771979869211877
0.5346325636 -0.09699654579 -0.00033151077061750257 -0.0009616969137157354
0.5399540663 -0.09699654579 -0.0003011146293523564 -0.0009406508532926203
0.5452755094 -0.09699654579 -0.00027123592620885873 -0.0009199579663502122
0.5505969524 -0.09699654579 -0.00024081505864114822 -0.0008988868267005591
0.5559183955 -0.09699654579 -0.00021365928642783555 -0.0008717355951122289
0.5612398982 -0.09699654579 -0.00018886030282931024 -0.0008433283414012211
0.5665613413 -0.09699654579 -0.00016411590408932643 -0.0008148535002801226
0.5718827844 -0.09699654579 -0.0001401805544663513 -0.0007830739606181945
0.5772042274 -0.09699654579 -0.000120220767517799 -0.0007483706789103241
0.5825257301 -0.09699654579 -0.00010021105101148674 -0.000713651429691167
0.5878471732 -0.09699654579 -8.148311702165345e-05 -0.0006759882866979727
0.5931686163 -0.09699654579 -6.671470787334795e-05 -0.0006359245421878401
0.5984900594 -0.09699654579 -5.1742163904367164e-05 -0.000594944007834402
0.6038115621 -0.09699654579 -4.034957694754434e-05 -0.0005514843866939424
0.6091330051 -0.09699654579 -3.0729899860208656e-05 -0.0005054905257683064
0.6144544482 -0.09699654579 -2.2804300389710953e-05 -0.0004594520303499056
0.6197758913 -0.09699654579 -1.921088821367355e-05 -0.00040992796763975834
0.625097394 -0.09699654579 -1.6578269730324013e-05 -0.000360066313272888
0.6304188371 -0.09699654579 -1.681356444853558e-05 -0.0003072591685190502
0.6357402802 -0.09699654579 -1.83300362909155e-05 -0.0002526726318793979
0.6410617828 -0.09699654579 -2.3900580757707988e-05 -0.00019797731127136733
0.6463832259 -0.09699654579 -3.224570322399588e-05 -0.0001408893313800859
0.651704669 -0.09699654579 -4.31995263593495e-05 -8.249284145731224e-05
0.6570261121 -0.09699654579 -5.858050106874049e-05 -2.2884347248935877e-05
0.6623476148 -0.09699654579 -7.61541103890456e-05 3.7948687912253545e-05
0.6676690578 -0.09699654579 -9.568664286006973e-05 0.00010086739970798337
0.6729905009 -0.09699654579 -0.00011972489397703513 0.0001652072345189867
0.678311944 -0.09699654579 -0.0001463106262724172 0.00023151635124111047
0.6836334467 -0.09699654579 -0.00017583813417022175 0.0002985800632734681
0.6889548898 -0.09699654579 -0.000210352099155282 0.00036738144608760074
0.6942763329 -0.09699654579 -0.00024810461385251837 0.0004391964399635634
0.6995977759 -0.09699654579 -0.00028926026514445474 0.0005134142907794159
0.7049192786 -0.09699654579 -0.00033520456056208863 0.0005887228315898437
0.7102407217 -0.09699654579 -0.00038576025096916084 0.0006667666820982497
0.7155621648 -0.09699654579 -0.0004421802208300572 0.0007472180605700231
0.7208836079 -0.09699654579 -0.0005030274376310775 0.0008315691521283064
0.7262051105 -0.09699654579 -0.0005701204643875222 0.0009185566795993339
0.7315265536 -0.09699654579 -0.0006437176702192893 0.0010048027571567346
0.7368479967 -0.09699654579 -0.0007229444260384657 0.0010980051178808715
0.7421694398 -0.09699654579 -0.0008117603547770299 0.0011920616155959558
0.7474909425 -0.09699654579 -0.0009070948252023418 0.0012908764555635652
0.7528123856 -0.09699654579 -0.001012987638402948 0.0013907438441214468
0.7581338286 -0.09699654579 -0.0011291642564140124 0.0014931991410440735
-0.3008363545 -0.09367749095 -0.0008584987502478641 0.0002326408277539127
-0.2955148816 -0.09367749095 -0.0008548957627491284 0.00023354519808468953
-0.2901934385 -0.09367749095 -0.0008501238354175708 0.00023520519896454012
-0.2848719656 -0.09367749095 -0.0008472085238247332 0.0002396672927496871
-0.2795505226 -0.09367749095 -0.0008483430370237039 0.00024678425381982497
-0.2742290497 -0.09367749095 -0.0008503993513379866 0.0002560907064770062