VARIABLES = X,Y,phix,phiy
ZONE I=200,J=200,F=POINT 
-0.3008363545 -0.1003156006 -0.0014043280772341766 0.0028591871174937413
-0.2955148816 -0.1003156006 -0.0014187714655952144 0.00281563261894686
-0.2901934385 -0.1003156006 -0.0014298592988212717 0.0027596822930737058
-0.2848719656 -0.1003156006 -0.0014407375523539801 0.002703975668704251
-0.2795505226 -0.1003156006 -0.0014530451963875345 0.0026425490440082295
-0.2742290497 -0.1003156006 -0.0014688317336664634 0.0025749062370649762
-0.2689076066 -0.1003156006 -0.001484115549865066 0.002505747879948129
-0.2635861337 -0.1003156006 -0.0014862907507369536 0.0024424310070653332
-0.2582646906 -0.1003156006 -0.0014924370038616028 0.0023765239939772943
-0.2529432178 -0.1003156006 -0.0014999551927647352 0.002305381949122766
-0.2476217598 -0.1003156006 -0.0015083045852154742 0.002235718553950048
-0.2423003018 -0.1003156006 -0.0015026418592833833 0.0021652211050124225
-0.2369788438 -0.1003156006 -0.0014917075760452125 0.002089569320539201
-0.2316573858 -0.1003156006 -0.0014832010140769319 0.0020077147609067073
-0.2263359278 -0.1003156006 -0.0014654940079897403 0.0019199227910469245
-0.2210144699 -0.1003156006 -0.0014372781261306627 0.001841608006528033
-0.2156930119 -0.1003156006 -0.0014105376615750477 0.0017618357894076855
-0.2103715539 -0.1003156006 -0.0013787630999319478 0.0016801316243944663
-0.2050500959 -0.1003156006 -0.0013357907492687537 0.0015992664791211484
-0.1997286379 -0.1003156006 -0.0012958403301913072 0.0015105329409831748
-0.19440718 -0.1003156006 -0.0012495821477404802 0.0014207106131480542
-0.189085722 -0.1003156006 -0.0011931182103436984 0.0013371817723554853
-0.183764264 -0.1003156006 -0.0011313870464023687 0.0012525623865713288
-0.178442806 -0.1003156006 -0.001071660364182371 0.0011695415576013666
-0.173121348 -0.1003156006 -0.0010033671553548412 0.0011008990450072538
-0.16779989 -0.1003156006 -0.0009366688858958408 0.0010379817171208322
-0.1624784321 -0.1003156006 -0.0008635172014380124 0.0009697197951924161
-0.1571569741 -0.1003156006 -0.000787257539994148 0.0009091594652279696
-0.1518355161 -0.1003156006 -0.0007081913882976665 0.0008524170250517306
-0.1465140581 -0.1003156006 -0.000627866792765976 0.0007955711447861586
-0.1411926001 -0.1003156006 -0.0005482292944606672 0.0007462207299757436
-0.1358711421 -0.1003156006 -0.00046944906752269093 0.0007086757376524016
-0.1305496842 -0.1003156006 -0.0003905874525822211 0.0006711291437179084
-0.1252282262 -0.1003156006 -0.00031010932374051403 0.0006348043169416866
-0.1199067682 -0.1003156006 -0.00023503880352756376 0.0006078168987114768
-0.1145853102 -0.1003156006 -0.00016175892950189843 0.000582556912413268
-0.1092638522 -0.1003156006 -8.732826416505817e-05 0.0005580199420829159
-0.1039423943 -0.1003156006 -1.3295764199324168e-05 0.0005341957053345622
-0.09862093627 -0.1003156006 5.5126190985866655e-05 0.0005160896794162331
-0.09329947084 -0.1003156006 0.00012486918082530617 0.0004982876632299515
-0.08797801286 -0.1003156006 0.00019462949020743937 0.000480493046439451
-0.08265655488 -0.1003156006 0.0002644621923974291 0.0004633660119002749
-0.0773350969 -0.1003156006 0.0003320588848338312 0.00045029462213134943
-0.07201363891 -0.1003156006 0.0003997419851963614 0.0004372207755551252
-0.06669218093 -0.1003156006 0.00046744804936439715 0.0004241445468509708
-0.06137072667 -0.1003156006 0.0005361411499434637 0.00041149385431935004
-0.05604926869 -0.1003156006 0.0006001470544543615 0.00040368791679518937
-0.05072781071 -0.1003156006 0.0006629440309195886 0.0003963737180138428
-0.045406349 -0.1003156006 0.0007254016357180419 0.00038888776934294507
-0.04008489102 -0.1003156006 0.0007886598855342736 0.00038183249546915846
-0.03476343304 -0.1003156006 0.000849954425920374 0.00037686322829695254
-0.02944197692 -0.1003156006 0.0009075158552134143 0.0003752949596351532
-0.02412051894 -0.1003156006 0.0009652989194573443 0.00037390702258691816
-0.01879905909 -0.1003156006 0.0010233137879406126 0.0003727183483645148
-0.01347760204 -0.1003156006 0.0010811017203399573 0.00037131362024242
-0.00815614406 -0.1003156006 0.0011350052235948114 0.0003709500994201804
-0.00283468538 -0.1003156006 0.0011860658703880212 0.0003709090882484578
0.002486772602 -0.1003156006 0.0012374808768801718 0.0003713088658349863
0.007808230817 -0.1003156006 0.001288811220306003 0.0003717339391793946
0.0131296888 -0.1003156006 0.001339997350307673 0.0003717556271122502
0.01845114678 -0.1003156006 0.0013902702203767647 0.00037083275872171586
0.02377260476 -0.1003156006 0.0014401126702138906 0.00036876675899962706
0.02909406275 -0.1003156006 0.0014900472604244752 0.0003666205988076274
0.03441552073 -0.1003156006 0.0015400202197451206 0.0003644742140009984
0.03973697871 -0.1003156006 0.001589814774720655 0.0003624051342407656
0.04505843669 -0.1003156006 0.0016390467951533567 0.00036134539753071397
0.05037989467 -0.1003156006 0.0016898427987697348 0.00036102748039015326
0.05570135266 -0.1003156006 0.0017410946792557086 0.0003605998426870732
0.06102281436 -0.1003156006 0.0017922911748211063 0.00036003620064667906
0.06634426862 -0.1003156006 0.0018432167568326312 0.00035964669255705937
0.0716657266 -0.1003156006 0.001893873944605022 0.00035935953831854985
0.07698718458 -0.1003156006 0.001947562253142583 0.0003682372119970257
0.08230864257 -0.1003156006 0.0020014765453011786 0.0003776381146084331
0.08763010055 -0.1003156006 0.0020561412399209473 0.00038724038988953316
0.09295155853 -0.1003156006 0.002110204136599063 0.00039667958198804054
0.09827301651 -0.1003156006 0.0021637434155210807 0.0004060101904666918
0.1035944745 -0.1003156006 0.0022129463372616777 0.00041960509328915877
0.1089159325 -0.1003156006 0.002254199929808973 0.0004412486188040564
0.1142373979 -0.1003156006 0.002295498413824115 0.00046289284322271936
0.1195588559 -0.1003156006 0.0023364154793880823 0.0004830755718984683
0.1248803139 -0.1003156006 0.0023775594751233153 0.0005038711804177695
0.1302017719 -0.1003156006 0.002418706029612619 0.000524881574764803
0.1355232298 -0.1003156006 0.002446006738691094 0.0005408210110076188
0.1408446878 -0.1003156006 0.0024640214403464557 0.0005526381255219978
0.1461661458 -0.1003156006 0.0024832929773961365 0.0005637791548797243
0.1514876038 -0.1003156006 0.0025026365674325987 0.000574916902992034
0.1568090618 -0.1003156006 0.0025219050269625846 0.0005860587079587716
0.1621305197 -0.1003156006 0.0025411782850402803 0.0005972112204557729
0.1674519777 -0.1003156006 0.0025654966919789277 0.0005930502121478027
0.1727734357 -0.1003156006 0.0025918742541376568 0.0005822433588300004
0.1780948937 -0.1003156006 0.0026183057705931054 0.0005714313921082148
0.1834163517 -0.1003156006 0.002644620869413512 0.0005606250885067834
0.1887378097 -0.1003156006 0.0026711145885350168 0.0005503587375385869
0.1940592676 -0.1003156006 0.002697976534300145 0.0005412635548663966
0.1993807256 -0.1003156006 0.002742188116361089 0.0005377265873146012
0.2047021836 -0.1003156006 0.002791766633446778 0.0005359187437639102
0.2100236416 -0.1003156006 0.0028412870171872265 0.0005340712092954902
0.2153450996 -0.1003156006 0.0028894454325784635 0.0005328877996274813
0.2206665576 -0.1003156006 0.0029379229913138994 0.0005315305857461718
0.2259880155 -0.1003156006 0.0029863485675235483 0.0005301888476769283
0.2313094735 -0.1003156006 0.0030331175999034734 0.0005428403116612144
0.2366309315 -0.1003156006 0.0030788415050250033 0.0005588911092761708
0.2419523895 -0.1003156006 0.0031239879624640563 0.0005746840250929075
0.2472738475 -0.1003156006 0.0031693747700851423 0.0005905354316449227
0.2525953054 -0.1003156006 0.0032152620076728953 0.0006062775537942121
0.2579167783 -0.1003156006 0.003260762979347099 0.0006216748441522917
0.2632382214 -0.1003156006 0.0033002014156271707 0.0006406189223648863
0.2685596943 -0.1003156006 0.0033386800044751 0.0006605375991109859
0.2738811374 -0.1003156006 0.0033772628638769476 0.0006804078787633126
0.2792026103 -0.1003156006 0.0034158175791408414 0.0007003498174593891
0.2845240533 -0.1003156006 0.0034535485522530166 0.0007199693405212579
0.2898455262 -0.1003156006 0.0034912625877923874 0.0007395946036375005
0.2951669693 -0.1003156006 0.0035242576057241495 0.0007682232308131521
0.3004884422 -0.1003156006 0.0035566017130026686 0.0007982131616980103
0.3058098853 -0.1003156006 0.0035881691671069663 0.0008268842503598126
0.3111313581 -0.1003156006 0.0036197158343680247 0.000855562114036871
0.3164528012 -0.1003156006 0.0036512940892330795 0.0008842329531873465
0.3217742741 -0.1003156006 0.003682530678763694 0.0009131211570453765
0.3270957172 -0.1003156006 0.003703313525616038 0.0009451868469942724
0.3324171901 -0.1003156006 0.003724410136940125 0.000977219399795949
0.3377386332 -0.1003156006 0.0037454542855263305 0.0010092619395598123
0.343060106 -0.1003156006 0.0037664574072970984 0.0010413110786506494
0.3483815491 -0.1003156006 0.0037870532178445916 0.0010723882046553557
0.353703022 -0.1003156006 0.0038052962018588414 0.0011045763372722044
0.3590244651 -0.1003156006 0.0038178549989655863 0.0011394669553298434
0.364345938 -0.1003156006 0.0038304266523324516 0.0011743516289135926
0.369667381 -0.1003156006 0.0038420401353629766 0.0012078093871441711
0.3749888539 -0.1003156006 0.003853931195162345 0.001241611201346081
0.380310297 -0.1003156006 0.0038658366432839457 0.001275605253687467
0.3856317699 -0.1003156006 0.0038625681607162717 0.0013154477093173865
0.390953213 -0.1003156006 0.0038546498027214287 0.0013536280531436203
0.3962746859 -0.1003156006 0.003846654527757533 0.0013914253473932459
0.4015961289 -0.1003156006 0.0038390467126511248 0.0014293144850674858
0.4069176018 -0.1003156006 0.003832003849397925 0.0014671786534565508
0.4122390449 -0.1003156006 0.003815444903958459 0.0014964746524569676
0.4175605178 -0.1003156006 0.003782941875111582 0.0015179302854806045
0.4228819609 -0.1003156006 0.0037490917194735185 0.0015402256913247079
0.4282034338 -0.1003156006 0.00371563740019834 0.001562337016570815
0.4335248768 -0.1003156006 0.0036853887876765867 0.0015821586929123037
0.4388463497 -0.1003156006 0.003652444989249823 0.0015946263608184576
0.4441677928 -0.1003156006 0.0036121442615139948 0.0015869076969007218
0.4494892657 -0.1003156006 0.0035726301152404394 0.0015792106738775123
0.4548107088 -0.1003156006 0.0035360730793526905 0.0015717334915959704
0.4601321816 -0.1003156006 0.0034977220110250493 0.0015641645572425935
0.4654536247 -0.1003156006 0.003462625498094701 0.0015482347722293743
0.4707750976 -0.1003156006 0.0034342014094187355 0.0015195263257269012
0.4760965407 -0.1003156006 0.0034073438037937366 0.0014920337975485264
0.4814180136 -0.1003156006 0.003380282561600088 0.0014645392311924798
0.4867394567 -0.1003156006 0.0033533587571491566 0.0014368530852967383
0.4920609295 -0.1003156006 0.0033349668133867954 0.001401451478089821
0.4973823726 -0.1003156006 0.0033194732348950156 0.0013645108680857788
0.5027038455 -0.1003156006 0.0033041723136828355 0.0013275611804005824
0.5080252886 -0.1003156006 0.0032888631606350525 0.0012906299458157614
0.5133467317 -0.1003156006 0.0032783306726203516 0.0012523188024582757
0.5186682343 -0.1003156006 0.0032703396606665377 0.0012095906600615655
0.5239896774 -0.1003156006 0.003262258707953113 0.001166931844482565
0.5293111205 -0.1003156006 0.0032545827159743182 0.0011245408403658668
0.5346325636 -0.1003156006 0.003250336645937416 0.0010812305653216143
0.5399540663 -0.1003156006 0.0032483938666410996 0.0010344325316101952
0.5452755094 -0.1003156006 0.003245613207461057 0.0009873531377903072
0.5505969524 -0.1003156006 0.00324420176913688 0.0009409565176561371
0.5559183955 -0.1003156006 0.003246671898384358 0.0008919237533853409
0.5612398982 -0.1003156006 0.003248475020670427 0.000840561670849383
0.5665613413 -0.1003156006 0.003250634676673146 0.0007893793123141392
0.5718827844 -0.1003156006 0.003255360895353186 0.000737558780031729
0.5772042274 -0.1003156006 0.0032608797084992145 0.0006822628018199197
0.5825257301 -0.1003156006 0.003265930506322656 0.0006267945786715516
0.5878471732 -0.1003156006 0.003273536706325968 0.0005700733775535576
0.5931686163 -0.1003156006 0.0032818687309703167 0.0005097050729788244
0.5984900594 -0.1003156006 0.003290173991188605 0.0004500651709554928
0.6038115621 -0.1003156006 0.003299954422861755 0.0003859745276988107
0.6091330051 -0.1003156006 0.00331087852402121 0.0003212254137088464
0.6144544482 -0.1003156006 0.0033209936125141266 0.00025245156647229545
0.6197758913 -0.1003156006 0.0033335624283278814 0.00018132812542026166
0.625097394 -0.1003156006 0.0033465725389755807 0.00010708082143075936
0.6304188371 -0.1003156006 0.0033599849201997765 2.7300400444498473e-05
0.6357402802 -0.1003156006 0.003377325322982313 -5.4034382059946287e-05
0.6410617828 -0.1003156006 0.0033963147468354204 -0.00014137550003785407
0.6463832259 -0.1003156006 0.003416725738862055 -0.00023216867293276956
0.651704669 -0.1003156006 0.0034378447897385187 -0.0003268916410903876
0.6570261121 -0.1003156006 0.0034658511277690387 -0.0004275918883194357
0.6623476148 -0.1003156006 0.003496106294001471 -0.0005346265014653915
0.6676690578 -0.1003156006 0.0035299926838371254 -0.0006463565498227591
0.6729905009 -0.1003156006 0.0035727565374689286 -0.0007669025353545637
0.678311944 -0.1003156006 0.003622123021183604 -0.0008906782438176757
0.6836334467 -0.1003156006 0.0036775459324232484 -0.0010208089768539764
0.6889548898 -0.1003156006 0.0037426574906505566 -0.0011592066476360935
0.6942763329 -0.1003156006 0.0038189627095155123 -0.0013029435034370134
0.6995977759 -0.1003156006 0.0039056097034824424 -0.0014516996612680437
0.7049192786 -0.1003156006 0.004003779469922745 -0.001603442627746474
0.7102407217 -0.1003156006 0.004116973985956916 -0.001760682510157678
0.7155621648 -0.1003156006 0.00424796799211443 -0.0019198719272181652
0.7208836079 -0.1003156006 0.004395347196064933 -0.0020785043902931586
0.7262051105 -0.1003156006 0.0045591350919550536 -0.002237464242352308
0.7315265536 -0.1003156006 0.0047442502655911925 -0.002393487764572042
0.7368479967 -0.1003156006 0.0049556743740896084 -0.0025441551566138107
0.7421694398 -0.1003156006 0.005188223470012198 -0.002688847292784499
0.7474909425 -0.1003156006 0.005431146682827842 -0.002816746932822695
0.7528123856 -0.1003156006 0.005705206820990851 -0.0029333441375443024
0.7581338286 -0.1003156006 0.006000436728877932 -0.0030332078432433953
-0.3008363545 -0.09699654579 -0.0014162384758835635 0.0028644658847773135
-0.2955148816 -0.09699654579 -0.0014364807659889927 0.002823219031335046
-0.2901934385 -0.09699654579 -0.0014469718426464355 0.0027736751257341316
-0.2848719656 -0.09699654579 -0.0014578623606962093 0.0027158853907698743
-0.2795505226 -0.09699654579 -0.001470995151587758 0.0026532178481504035
-0.2742290497 -0.09699654579 -0.0014853422532927452 0.002587717119398934
-0.2689076066 -0.09699654579 -0.0015021469985579566 0.0025159028160924093
-0.2635861337 -0.09699654579 -0.0015134089004698694 0.002442197921837387
-0.2582646906 -0.09699654579 -0.0015220717533611452 0.002377894055367192
-0.2529432178 -0.09699654579 -0.0015302871112783984 0.0023087172959218674
-0.2476217598 -0.09699654579 -0.0015410048069067295 0.0022377809060637167
-0.2423003018 -0.09699654579 -0.0015427575403013183 0.002162930027986019
-0.2369788438 -0.09699654579 -0.001537162725510509 0.0020860721598380295
-0.2316573858 -0.09699654579 -0.0015258665496346699 0.0019993172155294363
-0.2263359278 -0.09699654579 -0.0015175747553291862 0.0019057206305634544
-0.2210144699 -0.09699654579 -0.0014912755748989416 0.0018240011213627098
-0.2156930119 -0.09699654579 -0.0014594365425259757 0.0017432340130463053
-0.2103715539 -0.09699654579 -0.0014323198248407721 0.001654741127256073
-0.2050500959 -0.09699654579 -0.0013915603025271535 0.0015661032423246101
-0.1997286379 -0.09699654579 -0.0013451434022692405 0.0014762984839830162
-0.19440718 -0.09699654579 -0.0012975877563015975 0.0013883414738954437
-0.189085722 -0.09699654579 -0.0012405015904945655 0.0013052545419052338
-0.183764264 -0.09699654579 -0.001183518504513796 0.001222380155432347
-0.178442806 -0.09699654579 -0.0011213720576322308 0.0011346961448475792
-0.173121348 -0.09699654579 -0.0010525115162228315 0.0010629832865026694
-0.16779989 -0.09699654579 -0.0009760922126326717 0.0009922459499856705
-0.1624784321 -0.09699654579 -0.0009009149808116258 0.0009194258346363972
-0.1571569741 -0.09699654579 -0.0008186890958614979 0.0008570075678773167
-0.1518355161 -0.09699654579 -0.0007389011718983496 0.000799775540795095
-0.1465140581 -0.09699654579 -0.0006565289336636284 0.0007438678574470969
-0.1411926001 -0.09699654579 -0.0005740649207833851 0.0006932195422425798
-0.1358711421 -0.09699654579 -0.0004931992925501057 0.000657154777094815
-0.1305496842 -0.09699654579 -0.0004108270317469185 0.0006216999702812764
-0.1252282262 -0.09699654579 -0.000328175665348278 0.0005864384872066421
-0.1199067682 -0.09699654579 -0.00024993238902563817 0.0005601110141605358
-0.1145853102 -0.09699654579 -0.00017414526785240218 0.0005356372964786857
-0.1092638522 -0.09699654579 -9.809299046706142e-05 0.0005114862642436294
-0.1039423943 -0.09699654579 -2.1154857626725114e-05 0.0004888305269791269
-0.09862093627 -0.09699654579 4.9892878592602435e-05 0.0004711498259613573
-0.09329947084 -0.09699654579 0.00012156687133224046 0.00045367977788892105
-0.08797801286 -0.09699654579 0.0001939305095665013 0.0004363999408768649
-0.08265655488 -0.09699654579 0.0002659234472260775 0.0004194786384321251
-0.0773350969 -0.09699654579 0.00033479656108639045 0.00040687352841538304
-0.07201363891 -0.09699654579 0.0004047504176769308 0.00039473538414196927
-0.06669218093 -0.09699654579 0.00047483431907653797 0.00038264178336478783
-0.06137072667 -0.09699654579 0.0005456637969087415 0.0003703739091516617
-0.05604926869 -0.09699654579 0.0006115153322446916 0.0003631434270972838
-0.05072781071 -0.09699654579 0.0006758113495232031 0.0003563296468570268
-0.045406349 -0.09699654579 0.000740115006816076 0.0003495218943536658
-0.04008489102 -0.09699654579 0.0008047863260766821 0.0003429566816768624
-0.03476343304 -0.09699654579 0.0008677764486797665 0.00033873137618188094
-0.02944197692 -0.09699654579 0.0009268322980999774 0.0003380963786574417
-0.02412051894 -0.09699654579 0.000985717308496226 0.00033734725305852004
-0.01879905909 -0.09699654579 0.001044714181444385 0.00033667273745095245
-0.01347760204 -0.09699654579 0.0011040073478988032 0.00033618423229704445
-0.00815614406 -0.09699654579 0.001158819891293292 0.0003367008388607186
-0.00283468538 -0.09699654579 0.0012103491873852769 0.0003375159769341034
0.002486772602 -0.09699654579 0.001261983103962998 0.00033852180972490236
0.007808230817 -0.09699654579 0.0013135995660742915 0.000339531502902746
0.0131296888 -0.09699654579 0.0013651819384915796 0.0003404341186377296
0.01845114678 -0.09699654579 0.0014156578411065703 0.0003397691577927879
0.02377260476 -0.09699654579 0.0014655086937987152 0.000337524030756093
0.02909406275 -0.09699654579 0.0015152833799147072 0.0003352955501730962
0.03441552073 -0.09699654579 0.0015651462943596 0.00033303278162438856
0.03973697871 -0.09699654579 0.0016149068035372204 0.00033082452606720647
0.04505843669 -0.09699654579 0.0016643728603480648 0.00032948546674802334
0.05037989467 -0.09699654579 0.0017158432282334182 0.0003286738658951489
0.05570135266 -0.09699654579 0.0017673400914266521 0.00032789921331815674
0.06102281436 -0.09699654579 0.0018190988090865713 0.00032692436748473446
0.06634426862 -0.09699654579 0.0018704845064630062 0.0003261384756898901
0.0716657266 -0.09699654579 0.0019217837517994225 0.0003253519271272043
0.07698718458 -0.09699654579 0.0019774836130876825 0.0003349779939892671
0.08230864257 -0.09699654579 0.0020332423048656455 0.00034502046165831333
0.08763010055 -0.09699654579 0.0020889269889661738 0.00035508543925024235
0.09295155853 -0.09699654579 0.0021445260304650943 0.0003649295680268078
0.09827301651 -0.09699654579 0.0022000475135552262 0.00037486856230441466
0.1035944745 -0.09699654579 0.002250468091203241 0.0003900928622459478
0.1089159325 -0.09699654579 0.0022921599288259842 0.0004144527176308121
0.1142373979 -0.09699654579 0.002333945356779999 0.00043797577403620683
0.1195588559 -0.09699654579 0.0023757450504272516 0.00046063696584228305
0.1248803139 -0.09699654579 0.0024173784283164582 0.00048329866516562034
0.1302017719 -0.09699654579 0.002459231962112151 0.0005067755187524814
0.1355232298 -0.09699654579 0.002484385800339481 0.0005242781906261763
0.1408446878 -0.09699654579 0.002501245985277454 0.0005366585885650408
0.1461661458 -0.09699654579 0.002518115469617836 0.000548986537288675
0.1514876038 -0.09699654579 0.002534599589444259 0.0005613656268263303
0.1568090618 -0.09699654579 0.0025510716766549545 0.0005737500632071938
0.1621305197 -0.09699654579 0.0025685292600387535 0.0005858417621127487
0.1674519777 -0.09699654579 0.0025918510042709057 0.0005794500656823613
0.1727734357 -0.09699654579 0.0026173002408918307 0.000566512315284063
0.1780948937 -0.09699654579 0.0026422784855328623 0.0005527931329123848
0.1834163517 -0.09699654579 0.002667523853015152 0.00053932053581584
0.1887378097 -0.09699654579 0.0026934837907448546 0.0005275527640043974
0.1940592676 -0.09699654579 0.0027195257886154195 0.0005157875327758449
0.1993807256 -0.09699654579 0.0027664272023739094 0.0005110538675963431
0.2047021836 -0.09699654579 0.0028188374764434006 0.0005081413297283792
0.2100236416 -0.09699654579 0.002869787219694428 0.0005058873686589991
0.2153450996 -0.09699654579 0.002920447092451359 0.0005037912497289445
0.2206665576 -0.09699654579 0.0029710400607256275 0.0005017034264981818
0.2259880155 -0.09699654579 0.003022000803974848 0.0004995802613536744
0.2313094735 -0.09699654579 0.0030700834711182615 0.0005129946497664454
0.2366309315 -0.09699654579 0.0031166542814821275 0.000529910173118485
0.2419523895 -0.09699654579 0.003163284890894567 0.0005468191005947515
0.2472738475 -0.09699654579 0.0032098191377221462 0.0005637297308851761
0.2525953054 -0.09699654579 0.0032562943854967832 0.0005802236711278235
0.2579167783 -0.09699654579 0.003301925974358026 0.0005963353312270283
0.2632382214 -0.09699654579 0.003341774850601013 0.000615988381433849
0.2685596943 -0.09699654579 0.0033804488607487725 0.0006361277159823714
0.2738811374 -0.09699654579 0.003419055178420287 0.0006563016037882697
0.2792026103 -0.09699654579 0.003456869024669357 0.0006761671154223059
0.2845240533 -0.09699654579 0.003495042178085204 0.0006962480612473498
0.2898455262 -0.09699654579 0.003533222612271451 0.0007162241436233428
0.2951669693 -0.09699654579 0.0035660924878868055 0.0007465433011439294
0.3004884422 -0.09699654579 0.003598434193079856 0.0007770365217887361
0.3058098853 -0.09699654579 0.0036312199346290584 0.0008075337163237282
0.3111313581 -0.09699654579 0.003664145382048587 0.0008380220917148977
0.3164528012 -0.09699654579 0.003696578632714513 0.0008682365521334778
0.3217742741 -0.09699654579 0.0037276827438298336 0.0008975878799237669
0.3270957172 -0.09699654579 0.003747986773189142 0.0009304401078926068
0.3324171901 -0.09699654579 0.00376829463677529 0.0009632937226308272
0.3377386332 -0.09699654579 0.0037883957211927743 0.000995902224393466
0.343060106 -0.09699654579 0.003808533674454931 0.001028182911349598
0.3483815491 -0.09699654579 0.003828691913144656 0.0010605109900640615
0.353703022 -0.09699654579 0.003846572883927252 0.0010944830638375538
0.3590244651 -0.09699654579 0.003859419969186938 0.0011309858905306689
0.364345938 -0.09699654579 0.003871400585053877 0.0011666357785414833
0.369667381 -0.09699654579 0.0038835122576603228 0.0012022946320241479
0.3749888539 -0.09699654579 0.0038965528375297007 0.0012379205658146855
0.380310297 -0.09699654579 0.003909148290114524 0.0012727495038419123
0.3856317699 -0.09699654579 0.003905169921582177 0.0013128998403520234
0.390953213 -0.09699654579 0.0038970142655643833 0.0013552285596083401
0.3962746859 -0.09699654579 0.0038886108185504876 0.0013987813888731116
0.4015961289 -0.09699654579 0.0038804657478418852 0.0014400072433178386
0.4069176018 -0.09699654579 0.003872393027712693 0.0014796110088704164
0.4122390449 -0.09699654579 0.0038513620067197737 0.0015128715546939584
0.4175605178 -0.09699654579 0.0038127997198173307 0.001537615153633259
0.4228819609 -0.09699654579 0.003777337997147521 0.0015602272376099525
0.4282034338 -0.09699654579 0.0037427894036455066 0.0015821041008641102
0.4335248768 -0.09699654579 0.003708086575113757 0.001604156552639366
0.4388463497 -0.09699654579 0.003668405516679808 0.001617910472042748
0.4441677928 -0.09699654579 0.003624806199792949 0.0016094590149336437
0.4494892657 -0.09699654579 0.0035817452109691106 0.0016014153485355768
0.4548107088 -0.09699654579 0.0035389224436209172 0.001593485364273944
0.4601321816 -0.09699654579 0.00349706878056359 0.0015855891350995805
0.4654536247 -0.09699654579 0.003462278483118391 0.0015691388996113699
0.4707750976 -0.09699654579 0.0034325878542781096 0.0015395036167752023
0.4760965407 -0.09699654579 0.0034015996818287284 0.0015090862769632889
0.4814180136 -0.09699654579 0.00337190001626691 0.0014794389717486083
0.4867394567 -0.09699654579 0.003343384861418477 0.0014508240735476628
0.4920609295 -0.09699654579 0.003324171561749659 0.0014142207791161014
0.4973823726 -0.09699654579 0.0033074572045072035 0.001375455819155515
0.5027038455 -0.09699654579 0.003291498410909106 0.0013373868634751606
0.5080252886 -0.09699654579 0.0032752136507335503 0.0012991733967710071
0.5133467317 -0.09699654579 0.0032621272442119285 0.0012584317290834403
0.5186682343 -0.09699654579 0.0032530000343234003 0.001214702588717846
0.5239896774 -0.09699654579 0.00324466937837241 0.0011719454641996808
0.5293111205 -0.09699654579 0.0032360638589725168 0.0011286333653285885
0.5346325636 -0.09699654579 0.0032290599230025774 0.001083183194648266
0.5399540663 -0.09699654579 0.00322601719068739 0.0010355858477806585
0.5452755094 -0.09699654579 0.003223179623754033 0.0009884610103609189
0.5505969524 -0.09699654579 0.003220229297736571 0.0009408236036075464
0.5559183955 -0.09699654579 0.0032199534103088765 0.0008900700273285558
0.5612398982 -0.09699654579 0.0032217087109974933 0.0008387481384485439
0.5665613413 -0.09699654579 0.0032234655413557753 0.0007873637002928702
0.5718827844 -0.09699654579 0.0032252226712694274 0.0007339013741391858
0.5772042274 -0.09699654579 0.003230457060691215 0.0006784639757123961
0.5825257301 -0.09699654579 0.0032357244887409094 0.000623019163316956
0.5878471732 -0.09699654579 0.003240208632552442 0.0005653506383450866
0.5931686163 -0.09699654579 0.003247542272036443 0.0005053280188340507
0.5984900594 -0.09699654579 0.003253886091972495 0.0004448323726127456
0.6038115621 -0.09699654579 0.0032618088365559406 0.00038065800545397833
0.6091330051 -0.09699654579 0.0032696023888142195 0.0003143161074962974
0.6144544482 -0.09699654579 0.0032789052192769433 0.00024633615866945837
0.6197758913 -0.09699654579 0.003288789389894733 0.0001731179534465481
0.625097394 -0.09699654579 0.003299750553953727 9.902532673944521e-05
0.6304188371 -0.09699654579 0.0033124539998459265 1.841120206625705e-05
0.6357402802 -0.09699654579 0.0033238743276829807 -6.448751138666901e-05
0.6410617828 -0.09699654579 0.0033404090310655958 -0.0001506772012998599
0.6463832259 -0.09699654579 0.003356550668873831 -0.00024386222480257363
0.651704669 -0.09699654579 0.0033749515343911886 -0.0003407982144193416
0.6570261121 -0.09699654579 0.0033994042207390594 -0.00044548299912010086
0.6623476148 -0.09699654579 0.003427078920884624 -0.0005541810631490721
0.6676690578 -0.09699654579 0.0034586884561981037 -0.0006705688626729392
0.6729905009 -0.09699654579 0.0034963297992100747 -0.0007928295622217425
0.678311944 -0.09699654579 0.0035387045178016923 -0.0009226110394915567
0.6836334467 -0.09699654579 0.003588331322734844 -0.0010576074410378208
0.6889548898 -0.09699654579 0.0036498523103165675 -0.0011997017491816296
0.6942763329 -0.09699654579 0.003721465202189052 -0.0013501283692379908
0.6995977759 -0.09699654579 0.00380345797532685 -0.001508313619383851
0.7049192786 -0.09699654579 0.003899371980086837 -0.0016690144705777032
0.7102407217 -0.09699654579 0.004011294887001433 -0.0018345416284765179
0.7155621648 -0.09699654579 0.00414305589939374 -0.00200365582715939
0.7208836079 -0.09699654579 0.0042915620883408855 -0.0021780530468508644
0.7262051105 -0.09699654579 0.00446068536598049 -0.0023506548841234947
0.7315265536 -0.09699654579 0.004646833932085238 -0.0025168826913372516
0.7368479967 -0.09699654579 0.004857968643630432 -0.0026843866247267837
0.7421694398 -0.09699654579 0.005094578805991977 -0.002838908225686915
0.7474909425 -0.09699654579 0.005353088898248833 -0.0029869658479981485
0.7528123856 -0.09699654579 0.005636802269545178 -0.003115374940078848
0.7581338286 -0.09699654579 0.005941963225386272 -0.0032250764817918737
-0.3008363545 -0.09367749095 -0.0014282007863645307 0.0028688514713717615
-0.2955148816 -0.09367749095 -0.0014457997952902852 0.0028285100755219383
-0.2901934385 -0.09367749095 -0.0014655136138637202 0.002785942449514319
-0.2848719656 -0.09367749095 -0.0014748468330806396 0.002727906234479029
-0.2795505226 -0.09367749095 -0.0014877306451261977 0.0026667518575412166
-0.2742290497 -0.09367749095 -0.0015033190113009996 0.0025979541164450454
-0.2689076066 -0.09367749095 -0.0015197003793920463 0.002527516401069686
-0.2635861337 -0.09367749095 -0.0015437340860825046 0.0024506448876555394
-0.2582646906 -0.09367749095 -0.0015522486089325 0.0023811213170362557
-0.2529432178 -0.09367749095 -0.0015638835242854031 0.002312843794545219
-0.2476217598 -0.09367749095 -0.0015753402262763305 0.0022419567595596763
-0.2423003018 -0.09367749095 -0.0015940494498080967 0.002167739868182278
-0.2369788438 -0.09367749095 -0.001584615373233698 0.00208695663990147
-0.2316573858 -0.09367749095 -0.0015805424256962368 0.0019978982398109065
-0.2263359278 -0.09367749095 -0.0015696253633867535 0.0018943188574253227
-0.2210144699 -0.09367749095 -0.0015483552562415254 0.0018030802044953652