VARIABLES = X,Y,phix,phiy
ZONE I=200,J=200,F=POINT 
-0.3008363545 -0.1003156006 0.0001498478506258037 -0.00047266223367425214
-0.2955148816 -0.1003156006 0.00017061116285899914 -0.0004846944005671599
-0.2901934385 -0.1003156006 0.00018721583297588438 -0.0005023833429452993
-0.2848719656 -0.1003156006 0.00020433576506172533 -0.0005205136926457823
-0.2795505226 -0.1003156006 0.00022603577987844237 -0.0005407871147986735
-0.2742290497 -0.1003156006 0.0002511258349472665 -0.0005628760583078156
-0.2689076066 -0.1003156006 0.00027797143995187426 -0.000587076178902554
-0.2635861337 -0.1003156006 0.00029164541424591545 -0.0005970673896559118
-0.2582646906 -0.1003156006 0.0003035325006636818 -0.0006010921617628453
-0.2529432178 -0.1003156006 0.00031579789517826613 -0.0006027085097546071
-0.2476217598 -0.1003156006 0.0003289203634894237 -0.0005994223915486668
-0.2423003018 -0.1003156006 0.0003583815362300029 -0.0005898914313999245
-0.2369788438 -0.1003156006 0.0004003444467176297 -0.0005776377506916626
-0.2316573858 -0.1003156006 0.00044698546801478774 -0.0005647220736467352
-0.2263359278 -0.1003156006 0.0004934384716958287 -0.0005462635156966318
-0.2210144699 -0.1003156006 0.0005129417240592536 -0.0005097579548750634
-0.2156930119 -0.1003156006 0.0005327462394722739 -0.00047078498607940826
-0.2103715539 -0.1003156006 0.0005506375734007004 -0.0004279447499840712
-0.2050500959 -0.1003156006 0.0005473969008843551 -0.00039125319500227137
-0.1997286379 -0.1003156006 0.0005433859269894838 -0.00035192264144875816
-0.19440718 -0.1003156006 0.0005319388036918821 -0.0003073457422486458
-0.189085722 -0.1003156006 0.0005187802745230042 -0.00027961125051616215
-0.183764264 -0.1003156006 0.000500471410229064 -0.00025341869916780573
-0.178442806 -0.1003156006 0.0004821154986781204 -0.00022652757255431816
-0.173121348 -0.1003156006 0.0004646160261632351 -0.00020806841834802143
-0.16779989 -0.1003156006 0.00044908450010967707 -0.00019118612191350718
-0.1624784321 -0.1003156006 0.00043149891147193877 -0.0001763253476079151
-0.1571569741 -0.1003156006 0.0004159204611294699 -0.0001646201768245506
-0.1518355161 -0.1003156006 0.0004005811834689086 -0.00015625013238204953
-0.1465140581 -0.1003156006 0.0003854297948349318 -0.00014813426704360423
-0.1411926001 -0.1003156006 0.00037253762000852205 -0.0001407341568396058
-0.1358711421 -0.1003156006 0.0003662702770203807 -0.00013617776193266943
-0.1305496842 -0.1003156006 0.00035992515992807743 -0.0001316190216254503
-0.1252282262 -0.1003156006 0.0003534636898306157 -0.00012728455515578264
-0.1199067682 -0.1003156006 0.00034529370997120324 -0.00012005070236774245
-0.1145853102 -0.1003156006 0.00033657681155261954 -0.00011240086397080307
-0.1092638522 -0.1003156006 0.0003271797826458386 -0.00010412797762852269
-0.1039423943 -0.1003156006 0.00031785443497182615 -9.562789196876434e-05
-0.09862093627 -0.1003156006 0.00030493114982061374 -8.623716188873328e-05
-0.09329947084 -0.1003156006 0.0002916470422431234 -7.68716685538163e-05
-0.08797801286 -0.1003156006 0.00027839987703825965 -6.750359922484941e-05
-0.08265655488 -0.1003156006 0.0002647699314179816 -5.806733419178087e-05
-0.0773350969 -0.1003156006 0.0002525423449954534 -5.0332614900541094e-05
-0.07201363891 -0.1003156006 0.0002402622700622091 -4.252672420527253e-05
-0.06669218093 -0.1003156006 0.00022819096200407348 -3.472374730261463e-05
-0.06137072667 -0.1003156006 0.00021584968215845245 -2.7124554075869932e-05
-0.05604926869 -0.1003156006 0.00020371482658256842 -2.1012836368051555e-05
-0.05072781071 -0.1003156006 0.00019158405287721182 -1.543151198544444e-05
-0.045406349 -0.1003156006 0.0001795425412683475 -9.802059987199541e-06
-0.04008489102 -0.1003156006 0.00016751696547876032 -4.209045085032466e-06
-0.03476343304 -0.1003156006 0.0001555253393841219 1.6269287177312863e-07
-0.02944197692 -0.1003156006 0.00014438801994565845 1.396866901604047e-06
-0.02412051894 -0.1003156006 0.00013311952110983523 2.5785884125337558e-06
-0.01879905909 -0.1003156006 0.00012170344395445865 3.666020308590111e-06
-0.01347760204 -0.1003156006 0.00011044006524869502 4.8557510338531315e-06
-0.00815614406 -0.1003156006 0.00010098676397831239 5.805806800854227e-06
-0.00283468538 -0.1003156006 9.307090773716116e-05 6.392345641416708e-06
0.002486772602 -0.1003156006 8.520720665636654e-05 6.865240543329509e-06
0.007808230817 -0.1003156006 7.735904245929398e-05 7.340569266736097e-06
0.0131296888 -0.1003156006 6.945222025173918e-05 7.906467275579153e-06
0.01845114678 -0.1003156006 6.217388631085402e-05 9.809110597066377e-06
0.02377260476 -0.1003156006 5.551788359460353e-05 1.2560875058092176e-05
0.02909406275 -0.1003156006 4.9149652900684146e-05 1.524622221180305e-05
0.03441552073 -0.1003156006 4.282854721649715e-05 1.7935459710195394e-05
0.03973697871 -0.1003156006 3.622724420286672e-05 2.067338585733376e-05
0.04505843669 -0.1003156006 2.8727059203715712e-05 2.4081037941317604e-05
0.05037989467 -0.1003156006 2.0633714086314657e-05 2.818106273703145e-05
0.05570135266 -0.1003156006 1.2743161990666335e-05 3.2327963386783153e-05
0.06102281436 -0.1003156006 4.83111700872424e-06 3.641782060292418e-05
0.06634426862 -0.1003156006 -3.216701957768069e-06 4.0531959016809645e-05
0.0716657266 -0.1003156006 -1.1242491497311612e-05 4.463263622154989e-05
0.07698718458 -0.1003156006 -1.6356939438130607e-05 4.7790661375826685e-05
0.08230864257 -0.1003156006 -2.1199898822680104e-05 5.0825330566132256e-05
0.08763010055 -0.1003156006 -2.577998024386937e-05 5.379065943994991e-05
0.09295155853 -0.1003156006 -3.0604448656559773e-05 5.685213454881416e-05
0.09827301651 -0.1003156006 -3.5546324197982196e-05 5.9954572909978595e-05
0.1035944745 -0.1003156006 -4.143599310984499e-05 6.623197247439722e-05
0.1089159325 -0.1003156006 -4.864118140426359e-05 7.89175410236956e-05
0.1142373979 -0.1003156006 -5.5879926777885593e-05 9.160563169738337e-05
0.1195588559 -0.1003156006 -6.393931395852737e-05 0.00010373105856620588
0.1248803139 -0.1003156006 -7.164458362475282e-05 0.00011608553458644993
0.1302017719 -0.1003156006 -7.922550933634331e-05 0.00012853097225479408
0.1355232298 -0.1003156006 -9.358569985357347e-05 0.00014327521150934408
0.1408446878 -0.1003156006 -0.00011280284443237986 0.00015934178546189422
0.1461661458 -0.1003156006 -0.00013213129362218197 0.00017455609150753812
0.1514876038 -0.1003156006 -0.00015145529658102156 0.00018977253807131385
0.1568090618 -0.1003156006 -0.00017084428092111527 0.00020498723845905787
0.1621305197 -0.1003156006 -0.00019015130924255428 0.00022020846438289816
0.1674519777 -0.1003156006 -0.00021719573016091705 0.00022809536313199658
0.1727734357 -0.1003156006 -0.0002476291320537318 0.00023281107661555304
0.1780948937 -0.1003156006 -0.0002782044817605623 0.00023752733969653207
0.1834163517 -0.1003156006 -0.0003087695623437744 0.00024224475575162905
0.1887378097 -0.1003156006 -0.0003390143566089769 0.00024695095231808096
0.1940592676 -0.1003156006 -0.00036887785662068095 0.0002514662918223883
0.1993807256 -0.1003156006 -0.00040003574404330985 0.0002507596636170519
0.2047021836 -0.1003156006 -0.00043170692301806683 0.000248350105992019
0.2100236416 -0.1003156006 -0.00046323830176126646 0.00024595790447140396
0.2153450996 -0.1003156006 -0.0004945638022035704 0.00024347351806980306
0.2206665576 -0.1003156006 -0.0005259545361390422 0.00024090977148348602
0.2259880155 -0.1003156006 -0.0005572882477974725 0.00023835371299262882
0.2313094735 -0.1003156006 -0.0005914745145315005 0.00023178899885721796
0.2366309315 -0.1003156006 -0.0006263560910377808 0.00022346731613158384
0.2419523895 -0.1003156006 -0.0006610268788346066 0.00021483272569890297
0.2472738475 -0.1003156006 -0.0006958158796178058 0.00020622589628877636
0.2525953054 -0.1003156006 -0.0007308851522090209 0.00019779077071469428
0.2579167783 -0.1003156006 -0.0007658103135490323 0.0001890922916659287
0.2632382214 -0.1003156006 -0.000807098457472489 0.0001710210235039942
0.2685596943 -0.1003156006 -0.0008504258982338311 0.00015069347433329495
0.2738811374 -0.1003156006 -0.000894306912733391 0.0001307493223894375
0.2792026103 -0.1003156006 -0.0009377269154654109 0.0001104978292684148
0.2845240533 -0.1003156006 -0.0009795933585480482 8.954884298017757e-05
0.2898455262 -0.1003156006 -0.00102142792313877 6.859166599572428e-05
0.2951669693 -0.1003156006 -0.0010644026931281867 2.282925913969325e-05
0.3004884422 -0.1003156006 -0.001106936256804597 -2.6836884485478106e-05
0.3058098853 -0.1003156006 -0.0011460640923167582 -7.495128857494398e-05
0.3111313581 -0.1003156006 -0.001185249140115219 -0.00012306228120924283
0.3164528012 -0.1003156006 -0.0012244209119192772 -0.00017117520495359826
0.3217742741 -0.1003156006 -0.00126265570073509 -0.00021962789151730748
0.3270957172 -0.1003156006 -0.001269577574776181 -0.00029280529286546396
0.3324171901 -0.1003156006 -0.0012764544722947985 -0.00036606579094673004
0.3377386332 -0.1003156006 -0.0012833390342008274 -0.0004393303379449102
0.343060106 -0.1003156006 -0.0012902109944315746 -0.0005125778402797628
0.3483815491 -0.1003156006 -0.001295785774675387 -0.0005809201786045286
0.353703022 -0.1003156006 -0.0012868608454782843 -0.0006461844226699496
0.3590244651 -0.1003156006 -0.0012450815594271592 -0.0007052171710529556
0.364345938 -0.1003156006 -0.0012032098194394978 -0.0007642453145771342
0.369667381 -0.1003156006 -0.001164462402568303 -0.0008192651030038698
0.3749888539 -0.1003156006 -0.0011248667686284193 -0.0008752729690550769
0.380310297 -0.1003156006 -0.001085021168594591 -0.0009317797243831297
0.3856317699 -0.1003156006 -0.0010273748068640905 -0.000961552419941812
0.390953213 -0.1003156006 -0.0009680915026794932 -0.0009817155458941111
0.3962746859 -0.1003156006 -0.0009093616752126938 -0.001001668970978376
0.4015961289 -0.1003156006 -0.0008506138624492503 -0.0010218502461756696
0.4069176018 -0.1003156006 -0.0007922138693457448 -0.0010422256521181335
0.4122390449 -0.1003156006 -0.0007377727529977652 -0.0010498533885488755
0.4175605178 -0.1003156006 -0.0006826967947102464 -0.0010398325203193565
0.4228819609 -0.1003156006 -0.0006265953336911436 -0.0010296366556380293
0.4282034338 -0.1003156006 -0.0005703851456650324 -0.0010194657774790657
0.4335248768 -0.1003156006 -0.0005181765197464699 -0.0010097644033211582
0.4388463497 -0.1003156006 -0.00046790456513574766 -0.0009931173148049846
0.4441677928 -0.1003156006 -0.0004235231031734234 -0.0009582995491881134
0.4494892657 -0.1003156006 -0.00037957683993839993 -0.0009236792883246276
0.4548107088 -0.1003156006 -0.000338108022438149 -0.0008902796976857053
0.4601321816 -0.1003156006 -0.00029530635427233045 -0.0008562524931277812
0.4654536247 -0.1003156006 -0.00025872272348582254 -0.0008129642223293367
0.4707750976 -0.1003156006 -0.00023298139308168512 -0.0007564387267748536
0.4760965407 -0.1003156006 -0.00020916556221845303 -0.0007026639608562831
0.4814180136 -0.1003156006 -0.0001853951488085712 -0.0006488926887263191
0.4867394567 -0.1003156006 -0.00016140500959321152 -0.0005948810700454552
0.4920609295 -0.1003156006 -0.0001576171131098596 -0.0005309235638009891
0.4973823726 -0.1003156006 -0.0001597291917100798 -0.0004658926366214945
0.5027038455 -0.1003156006 -0.0001618400571517767 -0.00040091626106965284
0.5080252886 -0.1003156006 -0.00016397589476133386 -0.0003359072673515525
0.5133467317 -0.1003156006 -0.00017736510585948906 -0.00027554246800132816
0.5186682343 -0.1003156006 -0.00020546204331037225 -0.00021303061987573384
0.5239896774 -0.1003156006 -0.00023348442918923643 -0.0001504627466225173
0.5293111205 -0.1003156006 -0.0002611750110341363 -8.885883670632392e-05
0.5346325636 -0.1003156006 -0.0002952522623026518 -3.388116234077626e-05
0.5399540663 -0.1003156006 -0.0003404323764595742 1.8234065944550275e-05
0.5452755094 -0.1003156006 -0.0003865491517029058 7.128166647989417e-05
0.5505969524 -0.1003156006 -0.00043097445920814296 0.00012233687678301912
0.5559183955 -0.1003156006 -0.00048257369376024064 0.00016458792478149224
0.5612398982 -0.1003156006 -0.0005405892100462086 0.00020568716925250415
0.5665613413 -0.1003156006 -0.0005982307113283191 0.0002465721917647396
0.5718827844 -0.1003156006 -0.0006558516499094391 0.0002814128348644958
0.5772042274 -0.1003156006 -0.0007209024596564481 0.00031030134126245387
0.5825257301 -0.1003156006 -0.0007861423422483306 0.0003392463603865088
0.5878471732 -0.1003156006 -0.000851142444968929 0.00036283063682038854
0.5931686163 -0.1003156006 -0.0009193524770527959 0.00037996128331297784
0.5984900594 -0.1003156006 -0.0009880806451064005 0.00039819670463085797
0.6038115621 -0.1003156006 -0.0010590678731858597 0.0004081048226372337
0.6091330051 -0.1003156006 -0.0011291533054472356 0.0004163820928728788
0.6144544482 -0.1003156006 -0.0012012455138492109 0.00041907569680728297
0.6197758913 -0.1003156006 -0.0012715621326210003 0.0004172906025867831
0.625097394 -0.1003156006 -0.0013412171600518678 0.0004121283171531694
0.6304188371 -0.1003156006 -0.0014112305198034432 0.00039970670520298195
0.6357402802 -0.1003156006 -0.0014778522365034197 0.0003853723052122028
0.6410617828 -0.1003156006 -0.001543257563840967 0.000366471051387797
0.6463832259 -0.1003156006 -0.0016070493318893955 0.0003428520320083004
0.651704669 -0.1003156006 -0.0016691694229057305 0.0003163792203514846
0.6570261121 -0.1003156006 -0.0017252847214567005 0.0002858647960164873
0.6623476148 -0.1003156006 -0.0017786793941023957 0.0002523138212534321
0.6676690578 -0.1003156006 -0.0018286662641242115 0.00021572745947347847
0.6729905009 -0.1003156006 -0.0018707734506203367 0.0001758528934356884
0.678311944 -0.1003156006 -0.0019093624515331763 0.00013558369600485525
0.6836334467 -0.1003156006 -0.0019434903782375658 9.347904082316175e-05
0.6889548898 -0.1003156006 -0.0019694481344686124 5.1733512790600666e-05
0.6942763329 -0.1003156006 -0.001990843858221911 7.208817297330239e-06
0.6995977759 -0.1003156006 -0.0020057774288505343 -3.632447747007077e-05
0.7049192786 -0.1003156006 -0.0020137770347437895 -7.571042513923135e-05
0.7102407217 -0.1003156006 -0.002012738771620543 -0.00011270774102658987
0.7155621648 -0.1003156006 -0.002004817876487046 -0.00014487429071377138
0.7208836079 -0.1003156006 -0.0019901342408275543 -0.00017200698350829745
0.7262051105 -0.1003156006 -0.0019685312964739447 -0.00019293664379217126
0.7315265536 -0.1003156006 -0.001939375211511815 -0.00020276156945658104
0.7368479967 -0.1003156006 -0.0019026663402580148 -0.00020052344025336426
0.7421694398 -0.1003156006 -0.0018593844975752368 -0.00018641511506587428
0.7474909425 -0.1003156006 -0.0018191295425841899 -0.0001592467662254369
0.7528123856 -0.1003156006 -0.0017745784651314307 -0.00011309056771775585
0.7581338286 -0.1003156006 -0.0017303896569664731 -4.713576790602674e-05
-0.3008363545 -0.09699654579 0.0001332067188729122 -0.00047945282345777994
-0.2955148816 -0.09699654579 0.00015218073323438203 -0.000493324129712799
-0.2901934385 -0.09699654579 0.00017491500932367173 -0.0005082660657564383
-0.2848719656 -0.09699654579 0.00019395991154577105 -0.0005271491220257468
-0.2795505226 -0.09699654579 0.0002149280120340642 -0.0005492056908185087
-0.2742290497 -0.09699654579 0.00023984876678336998 -0.0005715315915010541
-0.2689076066 -0.09699654579 0.0002678852916844832 -0.000597191606138452
-0.2635861337 -0.09699654579 0.00029528672585914353 -0.0006194048042406857
-0.2582646906 -0.09699654579 0.0003075192008836126 -0.0006263606523961086
-0.2529432178 -0.09699654579 0.0003213239682887661 -0.0006253508587797846
-0.2476217598 -0.09699654579 0.0003338544552421549 -0.0006186198997106094
-0.2423003018 -0.09699654579 0.0003576111237159032 -0.000609004531653768
-0.2369788438 -0.09699654579 0.00040196797900552995 -0.0005984922825065124
-0.2316573858 -0.09699654579 0.0004507710206053683 -0.0005837161217577305
-0.2263359278 -0.09699654579 0.0005085227813524311 -0.0005641165593766169
-0.2210144699 -0.09699654579 0.0005352521624911267 -0.0005274707963469383
-0.2156930119 -0.09699654579 0.0005533918025285852 -0.0004840858975132792
-0.2103715539 -0.09699654579 0.0005754154288201423 -0.00043572819358472017
-0.2050500959 -0.09699654579 0.0005769695714840725 -0.00039149864636515286
-0.1997286379 -0.09699654579 0.0005651237455891242 -0.00034664943459962434
-0.19440718 -0.09699654579 0.0005523814589604633 -0.00029852469227677404
-0.189085722 -0.09699654579 0.0005339470226838638 -0.00026409193581717613
-0.183764264 -0.09699654579 0.0005134121205620113 -0.0002376826831458996
-0.178442806 -0.09699654579 0.0004890875973004086 -0.0002129712451377591
-0.173121348 -0.09699654579 0.000470028110018979 -0.0001940676113352218
-0.16779989 -0.09699654579 0.0004523285686837137 -0.0001799751303659872
-0.1624784321 -0.09699654579 0.00043538251146893676 -0.00016741364208789708
-0.1571569741 -0.09699654579 0.00041859229627816977 -0.00015719497816565466
-0.1518355161 -0.09699654579 0.0004033936397288514 -0.00014977677593170865
-0.1465140581 -0.09699654579 0.0003868423473873062 -0.00014250109672434415
-0.1411926001 -0.09699654579 0.0003732543367463642 -0.0001355709206005231
-0.1358711421 -0.09699654579 0.00036675351762045636 -0.00013126686613110775
-0.1305496842 -0.09699654579 0.0003605183952961739 -0.00012701130964470087
-0.1252282262 -0.09699654579 0.000354311520412928 -0.00012249209058108593
-0.1199067682 -0.09699654579 0.00034427652958594765 -0.00011464311278838686
-0.1145853102 -0.09699654579 0.0003346607974723685 -0.00010598066152395526
-0.1092638522 -0.09699654579 0.00032408069176047966 -9.71356484346737e-05
-0.1039423943 -0.09699654579 0.0003120385477699195 -8.739450901531134e-05
-0.09862093627 -0.09699654579 0.00029787460539952327 -7.793323182254845e-05
-0.09329947084 -0.09699654579 0.0002833641513273208 -6.84666707624063e-05
-0.08797801286 -0.09699654579 0.0002683891329649401 -5.8974375792180565e-05
-0.08265655488 -0.09699654579 0.00025393457732305783 -4.936117853979451e-05
-0.0773350969 -0.09699654579 0.00024155755725413963 -4.1829227758660594e-05
-0.07201363891 -0.09699654579 0.0002292486182163766 -3.435357934766316e-05
-0.06669218093 -0.09699654579 0.00021678765529609576 -2.6856804589153554e-05
-0.06137072667 -0.09699654579 0.00020413243457266162 -1.941954521055738e-05
-0.05604926869 -0.09699654579 0.00019153093004526186 -1.3418924733813933e-05
-0.05072781071 -0.09699654579 0.00017919542123611272 -7.834933807820659e-06
-0.045406349 -0.09699654579 0.00016678763176062095 -2.2551804543813246e-06
-0.04008489102 -0.09699654579 0.00015437417098915695 3.2765043323079836e-06
-0.03476343304 -0.09699654579 0.00014204935511912415 7.4787101775899255e-06
-0.02944197692 -0.09699654579 0.00013075638472419965 8.311156819610094e-06
-0.02412051894 -0.09699654579 0.00011931147148348996 9.185140975420652e-06
-0.01879905909 -0.09699654579 0.00010785803351430339 1.002067943445836e-05
-0.01347760204 -0.09699654579 9.642149546028518e-05 1.0755580749642527e-05
-0.00815614406 -0.09699654579 8.719082714102482e-05 1.1357551639049737e-05
-0.00283468538 -0.09699654579 7.961923241490901e-05 1.168167535024129e-05
0.002486772602 -0.09699654579 7.226158204235357e-05 1.194787377796256e-05
0.007808230817 -0.09699654579 6.49082355588851e-05 1.218322968924229e-05
0.0131296888 -0.09699654579 5.747354507140646e-05 1.2483147149760762e-05
0.01845114678 -0.09699654579 5.0933168833573236e-05 1.4246988060997187e-05
0.02377260476 -0.09699654579 4.520465550795314e-05 1.6916700987596344e-05
0.02909406275 -0.09699654579 3.990291257624827e-05 1.9612143121545602e-05
0.03441552073 -0.09699654579 3.475627196502557e-05 2.229848059102992e-05
0.03973697871 -0.09699654579 2.9071451461028775e-05 2.4986361523061997e-05
0.04505843669 -0.09699654579 2.2287626337540676e-05 2.8394994570112183e-05
0.05037989467 -0.09699654579 1.457980187588038e-05 3.2566800141076e-05
0.05570135266 -0.09699654579 6.876119872417403e-06 3.680161489709546e-05
0.06102281436 -0.09699654579 -7.083679662112185e-07 4.104371244730782e-05
0.06634426862 -0.09699654579 -8.46506056398213e-06 4.520010319564716e-05
0.0716657266 -0.09699654579 -1.620058026696189e-05 4.935575839744641e-05
0.07698718458 -0.09699654579 -2.067335815344507e-05 5.197916719234094e-05
0.08230864257 -0.09699654579 -2.4849911791381437e-05 5.447377269924911e-05
0.08763010055 -0.09699654579 -2.9270198279817017e-05 5.7114513064377424e-05
0.09295155853 -0.09699654579 -3.362500220645544e-05 5.978723770112118e-05
0.09827301651 -0.09699654579 -3.792356000299636e-05 6.240305261019197e-05
0.1035944745 -0.09699654579 -4.307245077359202e-05 6.893753923405129e-05
0.1089159325 -0.09699654579 -4.895362878849179e-05 8.267610239398518e-05
0.1142373979 -0.09699654579 -5.567591965501911e-05 9.611173815294062e-05
0.1195588559 -0.09699654579 -6.297072051662221e-05 0.00010926732481646452
0.1248803139 -0.09699654579 -7.032423572935704e-05 0.00012242397805582297
0.1302017719 -0.09699654579 -7.714921144568015e-05 0.00013583651568450358
0.1355232298 -0.09699654579 -9.178988355591823e-05 0.00015233037266627084
0.1408446878 -0.09699654579 -0.00011191670999229068 0.0001694284565904363
0.1461661458 -0.09699654579 -0.00013202888182066027 0.00018652278507003193
0.1514876038 -0.09699654579 -0.00015123786082793715 0.00020357839960618014
0.1568090618 -0.09699654579 -0.0001705228577520254 0.00022062053233210484
0.1621305197 -0.09699654579 -0.00018983994392827462 0.00023705767653592528
0.1674519777 -0.09699654579 -0.00021807689794634062 0.00024523759476499575
0.1727734357 -0.09699654579 -0.0002495194925127271 0.0002505559331880719
0.1780948937 -0.09699654579 -0.0002813337441246959 0.0002560857347762424
0.1834163517 -0.09699654579 -0.00031300823820864696 0.0002615730427489054
0.1887378097 -0.09699654579 -0.0003440303529739779 0.00026650937297008093
0.1940592676 -0.09699654579 -0.0003751169262823545 0.0002714374236106049
0.1993807256 -0.09699654579 -0.00040713483164721607 0.0002707550945032051
0.2047021836 -0.09699654579 -0.00043908126937973734 0.00026854329668689147
0.2100236416 -0.09699654579 -0.00047106121541032575 0.00026618807160313043
0.2153450996 -0.09699654579 -0.0005029532053781248 0.0002637330436914513
0.2206665576 -0.09699654579 -0.0005348145390709931 0.0002612746191704923
0.2259880155 -0.09699654579 -0.0005667046036156207 0.00025890178466939507
0.2313094735 -0.09699654579 -0.000601240334801926 0.00025257625139493364
0.2366309315 -0.09699654579 -0.0006362430086348636 0.0002452333102376194
0.2419523895 -0.09699654579 -0.0006711691998092399 0.000237895394442358
0.2472738475 -0.09699654579 -0.0007061952345250309 0.00023056029099190618
0.2525953054 -0.09699654579 -0.0007410289441747116 0.000222759295638385
0.2579167783 -0.09699654579 -0.0007758382086973855 0.00021449906780299019
0.2632382214 -0.09699654579 -0.0008195894705895143 0.000197158166333437
0.2685596943 -0.09699654579 -0.0008651695488020533 0.0001780225227126019
0.2738811374 -0.09699654579 -0.000909981392107987 0.00015830594766207855
0.2792026103 -0.09699654579 -0.0009535982706613424 0.00013795275088070285
0.2845240533 -0.09699654579 -0.0009974450573611115 0.00011769716606394063
0.2898455262 -0.09699654579 -0.0010419089530545804 9.77907583156195e-05
0.2951669693 -0.09699654579 -0.0010879975127859353 4.90599964251235e-05
0.3004884422 -0.09699654579 -0.0011323608470371685 -1.6914342207408039e-06
0.3058098853 -0.09699654579 -0.0011770898547949409 -5.216097390696663e-05
0.3111313581 -0.09699654579 -0.0012218278868179155 -0.00010262323867434341
0.3164528012 -0.09699654579 -0.0012650318777843172 -0.00015256754661913002
0.3217742741 -0.09699654579 -0.0013038722752699492 -0.00020283327263461795
0.3270957172 -0.09699654579 -0.0013116928679207873 -0.00028202004301001874
0.3324171901 -0.09699654579 -0.0013194351539440748 -0.00036120121543038367
0.3377386332 -0.09699654579 -0.001326586112306401 -0.00043828416638027885
0.343060106 -0.09699654579 -0.001333243150610816 -0.0005134739877433731
0.3483815491 -0.09699654579 -0.0013401374887970616 -0.0005891137337305039
0.353703022 -0.09699654579 -0.0013285204403084944 -0.0006613248519349741
0.3590244651 -0.09699654579 -0.0012825015995183316 -0.0007249132977193972
0.364345938 -0.09699654579 -0.001238581251362683 -0.0007855853584777547
0.369667381 -0.09699654579 -0.0011948068907792603 -0.0008463685562098148
0.3749888539 -0.09699654579 -0.0011515267856245534 -0.0009073988411396242
0.380310297 -0.09699654579 -0.0011099292207040145 -0.0009662504750542695
0.3856317699 -0.09699654579 -0.0010513648303534379 -0.0009947733953157235
0.390953213 -0.09699654579 -0.0009871427221614434 -0.0010160230829305348
0.3962746859 -0.09699654579 -0.000921647602965605 -0.001037492364086818
0.4015961289 -0.09699654579 -0.0008586691118810672 -0.0010584479679737395
0.4069176018 -0.09699654579 -0.0007978574963841209 -0.0010788762105844974
0.4122390449 -0.09699654579 -0.0007371109532386832 -0.0010856076324251194
0.4175605178 -0.09699654579 -0.0006771424585614205 -0.0010745282365746073
0.4228819609 -0.09699654579 -0.0006197515217462703 -0.0010638115731635674
0.4282034338 -0.09699654579 -0.0005635471471710967 -0.001053227310410806
0.4335248768 -0.09699654579 -0.0005070632570753437 -0.0010426566960816217
0.4388463497 -0.09699654579 -0.0004510914616685905 -0.001023493549559764
0.4441677928 -0.09699654579 -0.00040429097657722986 -0.0009871137849008424
0.4494892657 -0.09699654579 -0.00035784714509687983 -0.0009511151688171411
0.4548107088 -0.09699654579 -0.00031134414627697607 -0.0009152697435195723
0.4601321816 -0.09699654579 -0.0002653106110855464 -0.0008796205723302711
0.4654536247 -0.09699654579 -0.00022919681904724532 -0.0008357776516383241
0.4707750976 -0.09699654579 -0.00020159338135123446 -0.0007772573890943784
0.4760965407 -0.09699654579 -0.00017275188530709292 -0.0007169195255197198
0.4814180136 -0.09699654579 -0.00014538394712880018 -0.0006583137593290557
0.4867394567 -0.09699654579 -0.0001196047489783316 -0.0006020437780455782
0.4920609295 -0.09699654579 -0.00011584729239381232 -0.0005350705777211509
0.4973823726 -0.09699654579 -0.00011775309441854058 -0.00046525043943012896
0.5027038455 -0.09699654579 -0.00011980427209064799 -0.00039757004767264803
0.5080252886 -0.09699654579 -0.00012181115620914335 -0.00032933563400436186
0.5133467317 -0.09699654579 -0.00013673025881116036 -0.00026171214070911004
0.5186682343 -0.09699654579 -0.00016626582830590772 -0.00019567872361377482
0.5239896774 -0.09699654579 -0.00019461621395012993 -0.00013320532006913933
0.5293111205 -0.09699654579 -0.00022351055708552317 -6.894359868493083e-05
0.5346325636 -0.09699654579 -0.00026120427057449067 -7.360428364037137e-06
0.5399540663 -0.09699654579 -0.0003083964574056991 4.669128796990504e-05
0.5452755094 -0.09699654579 -0.0003544816360938593 9.963356413449453e-05
0.5505969524 -0.09699654579 -0.0004015252706858403 0.00015369736898656312
0.5559183955 -0.09699654579 -0.00045867364983128914 0.00020021098842326816
0.5612398982 -0.09699654579 -0.0005168094464007634 0.00024140984110605334
0.5665613413 -0.09699654579 -0.0005749159873462358 0.0002826621133373437
0.5718827844 -0.09699654579 -0.0006386834451361425 0.0003213562073563233
0.5772042274 -0.09699654579 -0.0007047686148409671 0.00035102603216509713
0.5825257301 -0.09699654579 -0.0007708757069053642 0.0003806996311114687
0.5878471732 -0.09699654579 -0.0008407539704087989 0.00040672312313528235
0.5931686163 -0.09699654579 -0.0009110873264340959 0.00042462957476202513
0.5984900594 -0.09699654579 -0.0009829558117210606 0.0004423381329185044
0.6038115621 -0.09699654579 -0.0010553808009153504 0.0004529624174113453
0.6091330051 -0.09699654579 -0.001130007566294249 0.0004591096675277244
0.6144544482 -0.09699654579 -0.0012026267369670428 0.0004631030486227587
0.6197758913 -0.09699654579 -0.0012753370003681886 0.0004597769478559479
0.625097394 -0.09699654579 -0.0013473558192835648 0.00045493150341020545
0.6304188371 -0.09699654579 -0.0014197397829367922 0.0004424407689965819
0.6357402802 -0.09699654579 -0.0014924089227158716 0.0004268669638413124
0.6410617828 -0.09699654579 -0.0015599480025240199 0.00040753274122035235
0.6463832259 -0.09699654579 -0.0016263241844948295 0.0003824871110870327
0.651704669 -0.09699654579 -0.001690067748759461 0.00035380330598226706
0.6570261121 -0.09699654579 -0.0017476780329158022 0.00032066739633384737
0.6623476148 -0.09699654579 -0.001802568850761608 0.00028503394834913866
0.6676690578 -0.09699654579 -0.0018538377472178636 0.0002452518764519465
0.6729905009 -0.09699654579 -0.0018990586841102688 0.00020297224520886468
0.678311944 -0.09699654579 -0.0019399522164801994 0.00015782169153788595
0.6836334467 -0.09699654579 -0.0019757219855867 0.00011212728283629451
0.6889548898 -0.09699654579 -0.0020026179018910076 6.645312789675075e-05
0.6942763329 -0.09699654579 -0.002024250709193095 1.7944341554534363e-05
0.6995977759 -0.09699654579 -0.002038000545426295 -3.0509576907550217e-05
0.7049192786 -0.09699654579 -0.0020439788140350404 -7.528339544307434e-05
0.7102407217 -0.09699654579 -0.002041206756469047 -0.00011725764598502774
0.7155621648 -0.09699654579 -0.0020288934371446416 -0.00015321261952206352
0.7208836079 -0.09699654579 -0.002007920369167959 -0.00018645184639420252
0.7262051105 -0.09699654579 -0.00197825036776228 -0.00021120074447462277
0.7315265536 -0.09699654579 -0.0019435719152378365 -0.00022346417131240866
0.7368479967 -0.09699654579 -0.0019000445688753156 -0.00022910325194029868
0.7421694398 -0.09699654579 -0.0018502360315894694 -0.0002160086982964389
0.7474909425 -0.09699654579 -0.0017950234570364497 -0.00019093647338873384
0.7528123856 -0.09699654579 -0.0017394494215584259 -0.00014520196579610126
0.7581338286 -0.09699654579 -0.0016854161170242127 -7.79869567908582e-05
-0.3008363545 -0.09367749095 0.00011477565947248852 -0.0004877319882895908
-0.2955148816 -0.09367749095 0.00013199755555093405 -0.000502648390016605
-0.2901934385 -0.09367749095 0.00015751736423091494 -0.0005160551542026045
-0.2848719656 -0.09367749095 0.0001813808886098733 -0.0005356058758762963
-0.2795505226 -0.09367749095 0.00020287294539141857 -0.0005567187921517319
-0.2742290497 -0.09367749095 0.00022934447015344035 -0.0005817766280132934