VARIABLES = X,Y,phix,phiy
ZONE I=200,J=200,F=POINT 
-0.3008363545 -0.1003156006 0.0003307795374609525 -0.00044015163390059527
-0.2955148816 -0.1003156006 0.0003450954319646514 -0.000434273420813019
-0.2901934385 -0.1003156006 0.0003606585831407986 -0.0004276963561438233
-0.2848719656 -0.1003156006 0.0003775846231109414 -0.0004202302921572887
-0.2795505226 -0.1003156006 0.0003923952991439341 -0.00041036825634805285
-0.2742290497 -0.1003156006 0.0004066272882824971 -0.0003996147637874849
-0.2689076066 -0.1003156006 0.0004158425960544699 -0.0003875997880337633
-0.2635861337 -0.1003156006 0.0004235850088571497 -0.00037320462189443284
-0.2582646906 -0.1003156006 0.00043484557945497814 -0.0003531939823410729
-0.2529432178 -0.1003156006 0.0004486041083359764 -0.0003292122100169184
-0.2476217598 -0.1003156006 0.00046334837072958086 -0.0003038684030172155
-0.2423003018 -0.1003156006 0.0004629364713557165 -0.0002831674719524114
-0.2369788438 -0.1003156006 0.0004554785983075038 -0.00026627758160333834
-0.2316573858 -0.1003156006 0.00044447010839237725 -0.0002476558859688593
-0.2263359278 -0.1003156006 0.00043418881834967954 -0.00023229777796930366
-0.2210144699 -0.1003156006 0.0004230139848848902 -0.00021728334510090684
-0.2156930119 -0.1003156006 0.0004079503698120708 -0.00020327799653862907
-0.2103715539 -0.1003156006 0.0003904838421068634 -0.00019488910739252696
-0.2050500959 -0.1003156006 0.00038791672532250066 -0.0001863797223322857
-0.1997286379 -0.1003156006 0.00038465343642845104 -0.0001741987722481006
-0.19440718 -0.1003156006 0.00038411528007229785 -0.0001636340179319925
-0.189085722 -0.1003156006 0.00037227392120552056 -0.00015371166880249755
-0.183764264 -0.1003156006 0.0003582154586934111 -0.00014215057227966174
-0.178442806 -0.1003156006 0.0003450551871681366 -0.0001310542492262551
-0.173121348 -0.1003156006 0.0003327963240981062 -0.00012373949740029298
-0.16779989 -0.1003156006 0.00032208140022223154 -0.0001165737720045401
-0.1624784321 -0.1003156006 0.00030874547086449006 -0.00010910794271059964
-0.1571569741 -0.1003156006 0.00029958736909016184 -0.00010703447128853868
-0.1518355161 -0.1003156006 0.00029273820938562523 -0.00010727282782957672
-0.1465140581 -0.1003156006 0.0002855177509335667 -0.00010749984511390721
-0.1411926001 -0.1003156006 0.0002807961740125733 -0.00010720919635949063
-0.1358711421 -0.1003156006 0.0002779449563874697 -0.00010563546675893767
-0.1305496842 -0.1003156006 0.00027508282685822014 -0.000104060000679466
-0.1252282262 -0.1003156006 0.00027220589721953096 -0.00010299576370735263
-0.1199067682 -0.1003156006 0.0002731581143450909 -0.0001021900208682812
-0.1145853102 -0.1003156006 0.0002750592177480901 -0.00010129807013628214
-0.1092638522 -0.1003156006 0.0002773018497281323 -0.00010062873091565902
-0.1039423943 -0.1003156006 0.00027946835978757685 -9.987912938801348e-05
-0.09862093627 -0.1003156006 0.0002799613284205804 -9.448944601698548e-05
-0.09329947084 -0.1003156006 0.00028061273208782766 -8.880896819325045e-05
-0.08797801286 -0.1003156006 0.00028128055072726914 -8.312240379937883e-05
-0.08265655488 -0.1003156006 0.00028237186576862954 -7.715754253101269e-05
-0.0773350969 -0.1003156006 0.0002788955509429253 -6.96300884557736e-05
-0.07201363891 -0.1003156006 0.0002754446734180477 -6.218983306268554e-05
-0.06669218093 -0.1003156006 0.00027193431224323896 -5.4752848852756396e-05
-0.06137072667 -0.1003156006 0.00026832538796429413 -4.711622910779316e-05
-0.05604926869 -0.1003156006 0.00026607622557948117 -4.2480079298069365e-05
-0.05072781071 -0.1003156006 0.000263994628214214 -3.8485646922035853e-05
-0.045406349 -0.1003156006 0.0002618824120771119 -3.44378046535605e-05
-0.04008489102 -0.1003156006 0.0002597573264975547 -3.055295050814868e-05
-0.03476343304 -0.1003156006 0.00025738118102146837 -2.6164299496408243e-05
-0.02944197692 -0.1003156006 0.00025377025295647234 -2.05815853786009e-05
-0.02412051894 -0.1003156006 0.0002500610211514884 -1.4844108540443447e-05
-0.01879905909 -0.1003156006 0.0002464649200435942 -8.865846869038323e-06
-0.01347760204 -0.1003156006 0.00024275515017975027 -3.1495476174208597e-06
-0.00815614406 -0.1003156006 0.0002354663262893936 1.3062866639203262e-06
-0.00283468538 -0.1003156006 0.00022512388686681673 4.716761717734312e-06
0.002486772602 -0.1003156006 0.0002140067613143773 8.385854612784737e-06
0.007808230817 -0.1003156006 0.00020272491068966815 1.2047741854022457e-05
0.0131296888 -0.1003156006 0.00019231460292365912 1.551505837710684e-05
0.01845114678 -0.1003156006 0.00018195824766489174 1.45629465587322e-05
0.02377260476 -0.1003156006 0.00017163356359183228 1.009504515713847e-05
0.02909406275 -0.1003156006 0.00016060910534334435 5.295313745690696e-06
0.03441552073 -0.1003156006 0.00014951112047416565 4.963987469447266e-07
0.03973697871 -0.1003156006 0.00013909516696728624 -4.016038901056006e-06
0.04505843669 -0.1003156006 0.00013285526726502286 -8.49333887252214e-06
0.05037989467 -0.1003156006 0.00013209877932803264 -1.2881642053409836e-05
0.05570135266 -0.1003156006 0.00013114871569193062 -1.7586680730332723e-05
0.06102281436 -0.1003156006 0.000130167535522798 -2.2284521208035477e-05
0.06634426862 -0.1003156006 0.000129363743579157 -2.6751609915542427e-05
0.0716657266 -0.1003156006 0.0001285338928695578 -3.107272029935561e-05
0.07698718458 -0.1003156006 0.0001272238326347077 -2.9312961681899705e-05
0.08230864257 -0.1003156006 0.00012579661222564544 -2.705794642089375e-05
0.08763010055 -0.1003156006 0.00012420442573970642 -2.460633496597419e-05
0.09295155853 -0.1003156006 0.0001227151851260907 -2.236656974037343e-05
0.09827301651 -0.1003156006 0.000121295843844318 -2.0252475213422427e-05
0.1035944745 -0.1003156006 0.00011878349707751826 -2.0112570647963517e-05
0.1089159325 -0.1003156006 0.00011258706516858433 -2.406608607885742e-05
0.1142373979 -0.1003156006 0.00010641595747845576 -2.8018616393317425e-05
0.1195588559 -0.1003156006 0.00010166570838496601 -3.179601799489596e-05
0.1248803139 -0.1003156006 9.640260317379078e-05 -3.567462738626701e-05
0.1302017719 -0.1003156006 9.079327220775475e-05 -3.953086820348173e-05
0.1355232298 -0.1003156006 9.090547352688433e-05 -4.7680373116055756e-05
0.1408446878 -0.1003156006 9.548995130336798e-05 -5.8673226450938525e-05
0.1461661458 -0.1003156006 0.00010018761797728857 -6.851990315538768e-05
0.1514876038 -0.1003156006 0.00010487684180206111 -7.836279045663791e-05
0.1568090618 -0.1003156006 0.00010963610394757425 -8.82118706101131e-05
0.1621305197 -0.1003156006 0.00011437438881575098 -9.806244428349831e-05
0.1674519777 -0.1003156006 0.00013042448245380788 -9.870523477852125e-05
0.1727734357 -0.1003156006 0.00015157193511104798 -9.571874193011956e-05
0.1780948937 -0.1003156006 0.0001725329728105294 -9.273085212394691e-05
0.1834163517 -0.1003156006 0.00019351908936715196 -8.973944369305786e-05
0.1887378097 -0.1003156006 0.00021401002760521493 -8.65555121240566e-05
0.1940592676 -0.1003156006 0.00023339374726799532 -8.304918810032256e-05
0.1993807256 -0.1003156006 0.000250817023563058 -6.609105903772833e-05
0.2047021836 -0.1003156006 0.00026750062021554694 -4.472509971119971e-05
0.2100236416 -0.1003156006 0.00028415171217115864 -2.3425346532702886e-05
0.2153450996 -0.1003156006 0.0002994506406760934 -2.8433527004547425e-06
0.2206665576 -0.1003156006 0.00031536862299823027 1.8048911650853184e-05
0.2259880155 -0.1003156006 0.00033118029857770535 3.8956877020618134e-05
0.2313094735 -0.1003156006 0.00033372270622287424 6.850468475921642e-05
0.2366309315 -0.1003156006 0.0003321653598810149 9.913579800056766e-05
0.2419523895 -0.1003156006 0.00033031062824813846 0.00012927985301165515
0.2472738475 -0.1003156006 0.00032845229003028507 0.00015938967717541935
0.2525953054 -0.1003156006 0.0003267773909037907 0.0001893056907355402
0.2579167783 -0.1003156006 0.00032482684500020155 0.00021825473517788957
0.2632382214 -0.1003156006 0.0003102508880846125 0.00024541084207981885
0.2685596943 -0.1003156006 0.0002923893543306511 0.0002723943780791348
0.2738811374 -0.1003156006 0.0002744151132741578 0.00029972085298273697
0.2792026103 -0.1003156006 0.00025656775206240993 0.0003268003095365781
0.2845240533 -0.1003156006 0.00023866919320539987 0.00035280735947103254
0.2898455262 -0.1003156006 0.00022079899284221762 0.00037881149150449157
0.2951669693 -0.1003156006 0.00019103399669378505 0.00040257998617868794
0.3004884422 -0.1003156006 0.00015940284368338038 0.00042581286177006164
0.3058098853 -0.1003156006 0.00012800226543026847 0.0004471031771697763
0.3111313581 -0.1003156006 9.678020716408285e-05 0.0004684017529904256
0.3164528012 -0.1003156006 6.545709908060816e-05 0.0004896932135020019
0.3217742741 -0.1003156006 3.371100929230565e-05 0.0005107821647105995
0.3270957172 -0.1003156006 -1.738897023842577e-05 0.0005214758586072883
0.3324171901 -0.1003156006 -6.849332923112357e-05 0.0005322169151203627
0.3377386332 -0.1003156006 -0.000119338633564356 0.0005429364310807476
0.343060106 -0.1003156006 -0.00017034881312193682 0.0005536571038152636
0.3483815491 -0.1003156006 -0.00021925307779045925 0.0005620915248158936
0.353703022 -0.1003156006 -0.0002723944245010598 0.000561362920598536
0.3590244651 -0.1003156006 -0.00033628366245822385 0.0005403927749766564
0.364345938 -0.1003156006 -0.0003999989689206055 0.0005194171863215487
0.369667381 -0.1003156006 -0.0004600682776091024 0.0004980920648040507
0.3749888539 -0.1003156006 -0.0005210575422094604 0.00047681015836917556
0.380310297 -0.1003156006 -0.0005823734778370683 0.00045568036408618517
0.3856317699 -0.1003156006 -0.0006372501293880252 0.0004091116160823458
0.390953213 -0.1003156006 -0.0006867000538393235 0.00035626641251973245
0.3962746859 -0.1003156006 -0.0007358500516296194 0.0003038743993893555
0.4015961289 -0.1003156006 -0.0007847390573322259 0.00025171273962040146
0.4069176018 -0.1003156006 -0.000833616479719487 0.00019961719190904911
0.4122390449 -0.1003156006 -0.0008702121177658906 0.00014153446308748168
0.4175605178 -0.1003156006 -0.0008938740615886544 7.0274045628629e-05
0.4228819609 -0.1003156006 -0.0009184123536585113 -1.8712798745420823e-06
0.4282034338 -0.1003156006 -0.0009427076089702043 -7.416267242873543e-05
0.4335248768 -0.1003156006 -0.0009652010362921719 -0.00014264013815039946
0.4388463497 -0.1003156006 -0.0009802923735102943 -0.0002132896297154429
0.4441677928 -0.1003156006 -0.0009749957955860841 -0.00029016056002442855
0.4494892657 -0.1003156006 -0.0009698740989101518 -0.00036647056732304383
0.4548107088 -0.1003156006 -0.000964566708545679 -0.00043996288621951337
0.4601321816 -0.1003156006 -0.0009594785966807414 -0.0005149985707433432
0.4654536247 -0.1003156006 -0.0009443654940295415 -0.0005880869629716164
0.4707750976 -0.1003156006 -0.0009138577963469228 -0.000657120973878004
0.4760965407 -0.1003156006 -0.0008851362392940639 -0.0007237039447138305
0.4814180136 -0.1003156006 -0.0008562224717289983 -0.0007902910783458056
0.4867394567 -0.1003156006 -0.000827124690008573 -0.000857088327771277
0.4920609295 -0.1003156006 -0.0007844581342226016 -0.0009128745952301573
0.4973823726 -0.1003156006 -0.0007393775503026237 -0.0009647068260383837
0.5027038455 -0.1003156006 -0.0006943827957336268 -0.0010167216146566487
0.5080252886 -0.1003156006 -0.0006492762702073093 -0.001068738924628492
0.5133467317 -0.1003156006 -0.0006044502721076702 -0.0011110864364902832
0.5186682343 -0.1003156006 -0.0005537953592640986 -0.0011437841112151698
0.5239896774 -0.1003156006 -0.0005032434937433523 -0.001176429973277142
0.5293111205 -0.1003156006 -0.0004534206610843208 -0.0012091543775028745
0.5346325636 -0.1003156006 -0.00040829971403311756 -0.0012353472514833705
0.5399540663 -0.1003156006 -0.00036403070874336613 -0.001252061261113395
0.5452755094 -0.1003156006 -0.00031913563522433327 -0.0012681333655497503
0.5505969524 -0.1003156006 -0.00027573910935219185 -0.0012855495108332522
0.5559183955 -0.1003156006 -0.0002416748210253831 -0.0012973781114609998
0.5612398982 -0.1003156006 -0.00020888124945287763 -0.001304106742885096
0.5665613413 -0.1003156006 -0.00017603239296580078 -0.0013113118389855825
0.5718827844 -0.1003156006 -0.00014942073606353845 -0.0013203781078600994
0.5772042274 -0.1003156006 -0.00013028075714552242 -0.0013249036263235207
0.5825257301 -0.1003156006 -0.00011158035459168915 -0.0013292928354263229
0.5878471732 -0.1003156006 -9.732254255879105e-05 -0.001336558701800339
0.5931686163 -0.1003156006 -9.127019602424943e-05 -0.0013443503700950373
0.5984900594 -0.1003156006 -8.497194637599334e-05 -0.0013513629611887886
0.6038115621 -0.1003156006 -8.775727705295524e-05 -0.001362846022343799
0.6091330051 -0.1003156006 -9.201953979398441e-05 -0.0013767046912698422
0.6144544482 -0.1003156006 -0.00010404731137228462 -0.0013939197538559826
0.6197758913 -0.1003156006 -0.00011940776953711309 -0.0014175786199893
0.625097394 -0.1003156006 -0.000138073665420719 -0.001446275748463446
0.6304188371 -0.1003156006 -0.00016352110574197198 -0.0014839999183986685
0.6357402802 -0.1003156006 -0.00018705959031992077 -0.0015284975976789582
0.6410617828 -0.1003156006 -0.00021611068699711768 -0.0015824266166168275
0.6463832259 -0.1003156006 -0.00024737657135081805 -0.0016441168607788776
0.651704669 -0.1003156006 -0.0002808310103956813 -0.001713152841209325
0.6570261121 -0.1003156006 -0.0003104793184201233 -0.0017977569129717045
0.6623476148 -0.1003156006 -0.000340819930172595 -0.0018938790242089018
0.6676690578 -0.1003156006 -0.00037027872841867963 -0.0020002789701055665
0.6729905009 -0.1003156006 -0.00039347761670210295 -0.002125788779358474
0.678311944 -0.1003156006 -0.00040885145299262947 -0.002260710925790491
0.6836334467 -0.1003156006 -0.0004198170733258883 -0.0024089056658332174
0.6889548898 -0.1003156006 -0.00042270939486538367 -0.00257582674317256
0.6942763329 -0.1003156006 -0.0004103549358401222 -0.002754975245071934
0.6995977759 -0.1003156006 -0.00038677670647312384 -0.0029471188821301522
0.7049192786 -0.1003156006 -0.00034896441939240085 -0.0031525833959736745
0.7102407217 -0.1003156006 -0.00029399181429658205 -0.0033735007958817427
0.7155621648 -0.1003156006 -0.00021458372628309228 -0.003606902300194048
0.7208836079 -0.1003156006 -0.00011271735738104499 -0.0038476180101443213
0.7262051105 -0.1003156006 1.1566621671274979e-05 -0.004097254607800287
0.7315265536 -0.1003156006 0.00016495805050151022 -0.004356382794298205
0.7368479967 -0.1003156006 0.00035656803387330735 -0.004621186061124716
0.7421694398 -0.1003156006 0.0005777143667479843 -0.0048905334455590236
0.7474909425 -0.1003156006 0.000822503999897304 -0.005145010420380007
0.7528123856 -0.1003156006 0.0011137170022569077 -0.005403091426075121
0.7581338286 -0.1003156006 0.0014408149141520317 -0.005653711383115314
-0.3008363545 -0.09699654579 0.0003422168449806111 -0.0004518677927298545
-0.2955148816 -0.09699654579 0.0003570143843568131 -0.0004450188976334683
-0.2901934385 -0.09699654579 0.00037446662260844907 -0.0004354918721166658
-0.2848719656 -0.09699654579 0.00039048994118001467 -0.0004272158704200078
-0.2795505226 -0.09699654579 0.00040480861900404674 -0.00041601090581036223
-0.2742290497 -0.09699654579 0.0004169117055235784 -0.0004046490378078316
-0.2689076066 -0.09699654579 0.0004238983011646374 -0.0003919217487870322
-0.2635861337 -0.09699654579 0.0004285844163741125 -0.0003776387308438207
-0.2582646906 -0.09699654579 0.00043655132962321216 -0.00035741991309684633
-0.2529432178 -0.09699654579 0.00045033022474505837 -0.0003328736794175324
-0.2476217598 -0.09699654579 0.0004658880259534165 -0.00030566444463495806
-0.2423003018 -0.09699654579 0.0004730391371467046 -0.00028066370805298723
-0.2369788438 -0.09699654579 0.00046165396255078617 -0.00026054646998024554
-0.2316573858 -0.09699654579 0.0004508369940875513 -0.0002432346457937642
-0.2263359278 -0.09699654579 0.0004347980790589195 -0.0002228751124870205
-0.2210144699 -0.09699654579 0.00041943546019216954 -0.00020745319548138598
-0.2156930119 -0.09699654579 0.00040241236910498805 -0.00019904477005834063
-0.2103715539 -0.09699654579 0.0003817692754739838 -0.00018908053781888022
-0.2050500959 -0.09699654579 0.00037368150729254884 -0.00017854434152707498
-0.1997286379 -0.09699654579 0.0003733015953440521 -0.00016806891935013666
-0.19440718 -0.09699654579 0.00037566762385981715 -0.00015860616885869031
-0.189085722 -0.09699654579 0.00036756018476964 -0.00014895154933237774
-0.183764264 -0.09699654579 0.000355131364123828 -0.00013815481081785224
-0.178442806 -0.09699654579 0.00034092229136242584 -0.0001280995415197604
-0.173121348 -0.09699654579 0.0003282050698755413 -0.00012025131524493435
-0.16779989 -0.09699654579 0.0003145973446872836 -0.00011262695259411314
-0.1624784321 -0.09699654579 0.00030411251113694705 -0.00010374555452493362
-0.1571569741 -0.09699654579 0.0002975903898208665 -0.00010228598194916656
-0.1518355161 -0.09699654579 0.00029370443230442733 -0.00010307032427540977
-0.1465140581 -0.09699654579 0.00028998116335114855 -0.00010373293653054669
-0.1411926001 -0.09699654579 0.0002861661766668867 -0.00010427592782998316
-0.1358711421 -0.09699654579 0.00028336541224541494 -0.00010333203667755477
-0.1305496842 -0.09699654579 0.0002803127652536009 -0.00010284521946618055
-0.1252282262 -0.09699654579 0.00027981537412954374 -0.00010267049645531921
-0.1199067682 -0.09699654579 0.0002839976920190345 -0.00010264459955198967
-0.1145853102 -0.09699654579 0.00028920727902359095 -0.00010249281016395356
-0.1092638522 -0.09699654579 0.0002945783917388038 -0.00010222198820125343
-0.1039423943 -0.09699654579 0.00029989448660845035 -0.0001018283474952652
-0.09862093627 -0.09699654579 0.0003026022107969666 -9.58619702892231e-05
-0.09329947084 -0.09699654579 0.00030516122208008146 -8.951748281990168e-05
-0.08797801286 -0.09699654579 0.0003075715481220194 -8.282057119779461e-05
-0.08265655488 -0.09699654579 0.0003099050009973323 -7.640250210806596e-05
-0.0773350969 -0.09699654579 0.00030627300460224054 -6.868677126747816e-05
-0.07201363891 -0.09699654579 0.0003025706256566858 -6.0949048889142336e-05
-0.06669218093 -0.09699654579 0.0002989364976042643 -5.322377886510823e-05
-0.06137072667 -0.09699654579 0.00029549896327784247 -4.540117280961988e-05
-0.05604926869 -0.09699654579 0.00029316988496507596 -4.07513475568998e-05
-0.05072781071 -0.09699654579 0.00029118283086262167 -3.695857923389779e-05
-0.045406349 -0.09699654579 0.0002893297074238076 -3.3161239049405836e-05
-0.04008489102 -0.09699654579 0.0002873230497020284 -2.9403295197013172e-05
-0.03476343304 -0.09699654579 0.00028458683623061836 -2.4812611500483898e-05
-0.02944197692 -0.09699654579 0.00028049849594364873 -1.8130005803432114e-05
-0.02412051894 -0.09699654579 0.00027638175249093655 -1.1575579996654418e-05
-0.01879905909 -0.09699654579 0.00027219068579643885 -4.902163900833141e-06
-0.01347760204 -0.09699654579 0.000267880709049112 2.002455233088177e-06
-0.00815614406 -0.09699654579 0.0002590380227738078 7.229039515426656e-06
-0.00283468538 -0.09699654579 0.000246709168372887 1.1103357275179336e-05
0.002486772602 -0.09699654579 0.00023393956006908864 1.5058760269087213e-05
0.007808230817 -0.09699654579 0.0002211981298974898 1.907368554989852e-05
0.0131296888 -0.09699654579 0.0002085863026385685 2.299037720781468e-05
0.01845114678 -0.09699654579 0.00019631100838691436 2.164754422341296e-05
0.02377260476 -0.09699654579 0.0001841811199545641 1.6373154053965647e-05
0.02909406275 -0.09699654579 0.00017111840738610556 1.076384195678719e-05
0.03441552073 -0.09699654579 0.00015813272952662567 5.109282168818866e-06
0.03973697871 -0.09699654579 0.0001458990355796717 -2.056650529738596e-07
0.04505843669 -0.09699654579 0.00013838660536003535 -5.535585924084893e-06
0.05037989467 -0.09699654579 0.00013750829922124218 -1.0664389406995932e-05
0.05570135266 -0.09699654579 0.00013653112264984553 -1.5914248627826705e-05
0.06102281436 -0.09699654579 0.00013560573859036304 -2.1321200768159535e-05
0.06634426862 -0.09699654579 0.0001346950896478955 -2.6373993366746827e-05
0.0716657266 -0.09699654579 0.00013381836198574304 -3.1425177591368685e-05
0.07698718458 -0.09699654579 0.00013221582716422934 -2.875564873920513e-05
0.08230864257 -0.09699654579 0.00013034866452398837 -2.5631321894890228e-05
0.08763010055 -0.09699654579 0.0001287083520094923 -2.2671339581807593e-05
0.09295155853 -0.09699654579 0.00012693241216477465 -1.9807981070848796e-05
0.09827301651 -0.09699654579 0.00012529997002197677 -1.6853762724622064e-05
0.1035944745 -0.09699654579 0.0001217064130585432 -1.6410390457803673e-05
0.1089159325 -0.09699654579 0.00011322961071110984 -2.0706670913355628e-05
0.1142373979 -0.09699654579 0.00010568707108346079 -2.4996465989197834e-05
0.1195588559 -0.09699654579 9.919799047086916e-05 -2.91895424716081e-05
0.1248803139 -0.09699654579 9.254930377300217e-05 -3.338033368156014e-05
0.1302017719 -0.09699654579 8.52483922757188e-05 -3.768819753834475e-05
0.1355232298 -0.09699654579 8.51764659543677e-05 -4.7654819085313126e-05
0.1408446878 -0.09699654579 9.027561155950962e-05 -6.0198213698396024e-05
0.1461661458 -0.09699654579 9.531232923861617e-05 -7.266849846527598e-05
0.1514876038 -0.09699654579 9.953370036062195e-05 -8.501870427657118e-05
0.1568090618 -0.09699654579 0.00010379126705540738 -9.736883914676819e-05
0.1621305197 -0.09699654579 0.00010836762723258877 -0.00010886333137621745
0.1674519777 -0.09699654579 0.00012611631231863575 -0.00010966423803323213
0.1727734357 -0.09699654579 0.0001487282951489658 -0.0001068920375372316
0.1780948937 -0.09699654579 0.00017188979083028436 -0.00010423736160327765
0.1834163517 -0.09699654579 0.00019469260972315264 -0.00010152820151793181
0.1887378097 -0.09699654579 0.0002165103485350694 -9.859203664713255e-05
0.1940592676 -0.09699654579 0.0002383631197827794 -9.565248229402955e-05
0.1993807256 -0.09699654579 0.00025772427477029395 -7.71964032710841e-05
0.2047021836 -0.09699654579 0.00027635292712758456 -5.450483201704272e-05
0.2100236416 -0.09699654579 0.0002941892462743967 -3.283483482858212e-05
0.2153450996 -0.09699654579 0.0003120548134660607 -1.120604581627407e-05
0.2206665576 -0.09699654579 0.0003298589726293282 1.0418239250711893e-05
0.2259880155 -0.09699654579 0.00034771410467450046 3.205517954533268e-05
0.2313094735 -0.09699654579 0.00035056140522879707 6.278911291874289e-05
0.2366309315 -0.09699654579 0.00034888108808451445 9.555992192164077e-05
0.2419523895 -0.09699654579 0.00034747033792403945 0.00012832550031759897
0.2472738475 -0.09699654579 0.00034584096980800656 0.00016108548536061576
0.2525953054 -0.09699654579 0.0003443133593712247 0.00019277303904196452
0.2579167783 -0.09699654579 0.0003426343567359985 0.00022366481058552407
0.2632382214 -0.09699654579 0.0003273526115592656 0.0002531611203020209
0.2685596943 -0.09699654579 0.00030928578969175005 0.0002821895304317049
0.2738811374 -0.09699654579 0.00029135423067118145 0.0003106235520649777
0.2792026103 -0.09699654579 0.00027352577879320044 0.00033805045840987116
0.2845240533 -0.09699654579 0.00025570739358446307 0.00036579196624175845
0.2898455262 -0.09699654579 0.00023787753841391217 0.00039381627440607145
0.2951669693 -0.09699654579 0.00020740355836874113 0.00041955837837458627
0.3004884422 -0.09699654579 0.00017586959923208343 0.00044372933348536185
0.3058098853 -0.09699654579 0.0001440782439379464 0.0004679294880374187
0.3111313581 -0.09699654579 0.00011241310236916091 0.0004921278024605149
0.3164528012 -0.09699654579 8.07857994344643e-05 0.0005157071259001116
0.3217742741 -0.09699654579 4.8081502133548306e-05 0.0005372256115888347
0.3270957172 -0.09699654579 -5.736111255751902e-06 0.00055030464386617
0.3324171901 -0.09699654579 -5.9516508937010113e-05 0.0005633895765208836
0.3377386332 -0.09699654579 -0.00011258598714498112 0.0005755116480915874
0.343060106 -0.09699654579 -0.0001649076853505371 0.0005867747866546751
0.3483815491 -0.09699654579 -0.0002171914702338351 0.0005981809694921567
0.353703022 -0.09699654579 -0.00027566913549368033 0.0005984445631015885
0.3590244651 -0.09699654579 -0.0003445486466085704 0.0005771436490799883
0.364345938 -0.09699654579 -0.0004105979887481123 0.0005557734199539086
0.369667381 -0.09699654579 -0.0004764164224814466 0.0005344782797019197
0.3749888539 -0.09699654579 -0.0005422262973826167 0.0005136346556790857
0.380310297 -0.09699654579 -0.0006060348143374602 0.0004925420291944728
0.3856317699 -0.09699654579 -0.0006606293809510552 0.0004448729737538534
0.390953213 -0.09699654579 -0.0007142664941762027 0.00038953795424110174
0.3962746859 -0.09699654579 -0.0007690139987221652 0.00033376730231869054
0.4015961289 -0.09699654579 -0.0008215972428940337 0.0002790559334072899
0.4069176018 -0.09699654579 -0.0008725064414122667 0.00022561350210810636
0.4122390449 -0.09699654579 -0.0009127038009078036 0.0001623547989764563
0.4175605178 -0.09699654579 -0.0009393649204376625 8.60734557429728e-05
0.4228819609 -0.09699654579 -0.0009642427616363742 1.237014619927069e-05
0.4282034338 -0.09699654579 -0.000988697782110788 -6.00310885496827e-05
0.4335248768 -0.09699654579 -0.0010133555788684 -0.0001327796247062718
0.4388463497 -0.09699654579 -0.00102954060246865 -0.0002099064208042009
0.4441677928 -0.09699654579 -0.0010241978754498852 -0.000289513894312455
0.4494892657 -0.09699654579 -0.0010189752065449225 -0.0003687302409166915
0.4548107088 -0.09699654579 -0.0010137472369931419 -0.00044799955581680575
0.4601321816 -0.09699654579 -0.0010083823317698919 -0.0005266869400580308
0.4654536247 -0.09699654579 -0.000992559152335707 -0.000599664183265304
0.4707750976 -0.09699654579 -0.0009612731441607616 -0.0006705521158721431
0.4760965407 -0.09699654579 -0.0009289393273874501 -0.0007431333427047097
0.4814180136 -0.09699654579 -0.0008974332816892328 -0.0008140886664190968
0.4867394567 -0.09699654579 -0.000867340648347331 -0.0008829394832532884
0.4920609295 -0.09699654579 -0.0008224922769318439 -0.0009397071334917813
0.4973823726 -0.09699654579 -0.0007738365488423175 -0.0009934334882449308
0.5027038455 -0.09699654579 -0.0007264741882985714 -0.0010462674573416236
0.5080252886 -0.09699654579 -0.0006789466043981673 -0.0010993366968773597
0.5133467317 -0.09699654579 -0.000628277752706614 -0.0011427562281122014
0.5186682343 -0.09699654579 -0.0005742883086893155 -0.0011751109093685206
0.5239896774 -0.09699654579 -0.0005237454825267106 -0.0012075253875867165
0.5293111205 -0.09699654579 -0.0004713522367615351 -0.00123994372875599
0.5346325636 -0.09699654579 -0.0004203847068816941 -0.0012642346690483208
0.5399540663 -0.09699654579 -0.0003743245201441206 -0.0012795291386319208
0.5452755094 -0.09699654579 -0.00032956278795957805 -0.0012955080057496658
0.5505969524 -0.09699654579 -0.000283290550272257 -0.0013107650107912277
0.5559183955 -0.09699654579 -0.0002455749121463691 -0.0013177808982087892
0.5612398982 -0.09699654579 -0.00021280560352082722 -0.0013245026318971693
0.5665613413 -0.09699654579 -0.00017974942469051533 -0.0013310802464458569
0.5718827844 -0.09699654579 -0.0001510826574294236 -0.0013336929832172644
0.5772042274 -0.09699654579 -0.00013169684547236632 -0.001337006754698435
0.5825257301 -0.09699654579 -0.00011240107920044431 -0.0013402947605157666
0.5878471732 -0.09699654579 -9.87357564780848e-05 -0.0013417599954295412
0.5931686163 -0.09699654579 -9.336116303291795e-05 -0.001346943060069031
0.5984900594 -0.09699654579 -8.912783649282427e-05 -0.0013504060894824837
0.6038115621 -0.09699654579 -9.28563849782643e-05 -0.001359613389150033
0.6091330051 -0.09699654579 -0.00010250891208766969 -0.0013698718382957253
0.6144544482 -0.09699654579 -0.00011349231947315231 -0.001384914111253441
0.6197758913 -0.09699654579 -0.0001347310962851005 -0.0014078908682407356
0.625097394 -0.09699654579 -0.00015624607020158326 -0.0014333904808823978
0.6304188371 -0.09699654579 -0.00018405986364551668 -0.0014697672115987826
0.6357402802 -0.09699654579 -0.0002174762344165254 -0.001509109326697957
0.6410617828 -0.09699654579 -0.0002499849423553796 -0.0015594278624745485
0.6463832259 -0.09699654579 -0.00028821752047297647 -0.0016209855269074648
0.651704669 -0.09699654579 -0.000327987330872834 -0.0016913382504279678
0.6570261121 -0.09699654579 -0.0003655425772522966 -0.001778982424478017
0.6623476148 -0.09699654579 -0.0004016312017541523 -0.0018755731123764948
0.6676690578 -0.09699654579 -0.0004379752522418131 -0.0019853967188360306
0.6729905009 -0.09699654579 -0.0004700009151428551 -0.0021099621108716013
0.678311944 -0.09699654579 -0.0004996248546211667 -0.002249158434563819
0.6836334467 -0.09699654579 -0.0005215976785632595 -0.002400918021775551
0.6889548898 -0.09699654579 -0.0005314716428373106 -0.002570972038302732
0.6942763329 -0.09699654579 -0.0005297763173929195 -0.0027574706106094776
0.6995977759 -0.09699654579 -0.0005179640102077766 -0.0029611663803631445
0.7049192786 -0.09699654579 -0.0004890711522082291 -0.003177060237338422
0.7102407217 -0.09699654579 -0.0004407441022443501 -0.0034082030273114303
0.7155621648 -0.09699654579 -0.00036653461655385063 -0.0036558765320998383
0.7208836079 -0.09699654579 -0.0002716703461296986 -0.0039182704161291725
0.7262051105 -0.09699654579 -0.0001490125976118267 -0.004189409048113804
0.7315265536 -0.09699654579 1.9523886618690138e-07 -0.004463724004004403
0.7368479967 -0.09699654579 0.00018272107938267445 -0.004749332967299972
0.7421694398 -0.09699654579 0.0004031915545780575 -0.005033950569880981
0.7474909425 -0.09699654579 0.0006560150890530001 -0.005321456865628027
0.7528123856 -0.09699654579 0.0009512300648800084 -0.005598593911773878
0.7581338286 -0.09699654579 0.0012846611349327612 -0.005867516076816268
-0.3008363545 -0.09367749095 0.0003531933221998965 -0.0004639423152490431
-0.2955148816 -0.09367749095 0.0003695690234707044 -0.0004572920705991172
-0.2901934385 -0.09367749095 0.000388550006286453 -0.0004443013502571891
-0.2848719656 -0.09367749095 0.0004027980912075003 -0.00043260247595194786
-0.2795505226 -0.09367749095 0.0004173392563432616 -0.00042187056933942865
-0.2742290497 -0.09367749095 0.0004248180140678369 -0.00040827170231973203
-0.2689076066 -0.09367749095 0.00043166059967823523 -0.00039590996692945936