VARIABLES = X,Y,phix,phiy
ZONE I=200,J=200,F=POINT 
-0.3008363545 -0.1003156006 -0.0004196001565876202 -0.0009519001834218854
-0.2955148816 -0.1003156006 -0.00043350411312839514 -0.0009255294741309922
-0.2901934385 -0.1003156006 -0.00044685358829673125 -0.0009040917776747549
-0.2848719656 -0.1003156006 -0.0004617245606236935 -0.0008829038853629061
-0.2795505226 -0.1003156006 -0.0004781456093159972 -0.0008597826539419751
-0.2742290497 -0.1003156006 -0.000498328498586066 -0.0008390294643083935
-0.2689076066 -0.1003156006 -0.000519822061969357 -0.000815274439180485
-0.2635861337 -0.1003156006 -0.0005441559509855564 -0.0007727775236659445
-0.2582646906 -0.1003156006 -0.0005759406469123758 -0.0007261662215793173
-0.2529432178 -0.1003156006 -0.0006096507851471951 -0.0006789536390335313
-0.2476217598 -0.1003156006 -0.0006460057868174899 -0.0006302413412652911
-0.2423003018 -0.1003156006 -0.00066678774839382 -0.0006030723748121585
-0.2369788438 -0.1003156006 -0.0006811364443677823 -0.0005909334529689519
-0.2316573858 -0.1003156006 -0.0006952583536794099 -0.0005794159247453981
-0.2263359278 -0.1003156006 -0.0007116788479794 -0.0005691891131534854
-0.2210144699 -0.1003156006 -0.0007410259222342938 -0.0005627869184994912
-0.2156930119 -0.1003156006 -0.0007688927470482403 -0.0005586158472354605
-0.2103715539 -0.1003156006 -0.0007974151189069239 -0.0005581188563925644
-0.2050500959 -0.1003156006 -0.000801057783663803 -0.0005363310490431667
-0.1997286379 -0.1003156006 -0.0007983455913487245 -0.0005137977819052275
-0.19440718 -0.1003156006 -0.0007899560605918985 -0.0004831419318624856
-0.189085722 -0.1003156006 -0.0008069466130350832 -0.0004419973340006182
-0.183764264 -0.1003156006 -0.0008276171907463161 -0.00039603175814527836
-0.178442806 -0.1003156006 -0.0008477023849940274 -0.000354502887733423
-0.173121348 -0.1003156006 -0.0008798663626684341 -0.0003150696160744078
-0.16779989 -0.1003156006 -0.0009119100647746412 -0.00027898131348436534
-0.1624784321 -0.1003156006 -0.0009520803040463222 -0.0002333155211167832
-0.1571569741 -0.1003156006 -0.0009957627423509566 -0.00019905189546871695
-0.1518355161 -0.1003156006 -0.001042506734419498 -0.00017062238864637322
-0.1465140581 -0.1003156006 -0.00108975274432146 -0.00014153506318493749
-0.1411926001 -0.1003156006 -0.0011371503218366098 -0.00011756058077733488
-0.1358711421 -0.1003156006 -0.0011819849213927757 -0.00010442870432649061
-0.1305496842 -0.1003156006 -0.0012268863627356867 -9.130541068768656e-05
-0.1252282262 -0.1003156006 -0.001272827982413964 -7.981975638009644e-05
-0.1199067682 -0.1003156006 -0.0013149827832673697 -7.41126468190053e-05
-0.1145853102 -0.1003156006 -0.0013559876337669227 -7.000409917405088e-05
-0.1092638522 -0.1003156006 -0.0013984160330791585 -6.60747787443384e-05
-0.1039423943 -0.1003156006 -0.0014407112198919266 -6.190146090029551e-05
-0.09862093627 -0.1003156006 -0.0014823759793201677 -5.926702083755647e-05
-0.09329947084 -0.1003156006 -0.0015263205411910996 -5.67119412653084e-05
-0.08797801286 -0.1003156006 -0.0015702069287125732 -5.415541696188908e-05
-0.08265655488 -0.1003156006 -0.001614324824757685 -5.1865720184668465e-05
-0.0773350969 -0.1003156006 -0.0016516969441342346 -5.0988566112946425e-05
-0.07201363891 -0.1003156006 -0.001689105394550872 -4.998817428792341e-05
-0.06669218093 -0.1003156006 -0.001726707467449334 -4.898692171328691e-05
-0.06137072667 -0.1003156006 -0.0017639943317541654 -4.8916039305902057e-05
-0.05604926869 -0.1003156006 -0.001792988075119963 -5.30701586809468e-05
-0.05072781071 -0.1003156006 -0.001819962582169184 -5.799186163464378e-05
-0.045406349 -0.1003156006 -0.001847042433533523 -6.260137991261423e-05
-0.04008489102 -0.1003156006 -0.0018737357571073443 -6.780810635805553e-05
-0.03476343304 -0.1003156006 -0.00189898838620373 -7.470920496946125e-05
-0.02944197692 -0.1003156006 -0.0019203170664563792 -8.532886574275684e-05
-0.02412051894 -0.1003156006 -0.0019416948992220342 -9.617790176314273e-05
-0.01879905909 -0.1003156006 -0.001963126462423921 -0.00010735382785035614
-0.01347760204 -0.1003156006 -0.001984384570559445 -0.00011816889443433297
-0.00815614406 -0.1003156006 -0.002000806650820217 -0.0001272123173679011
-0.00283468538 -0.1003156006 -0.002012967420671238 -0.00013479919369700023
0.002486772602 -0.1003156006 -0.0020242336702928614 -0.00014297854062128666
0.007808230817 -0.1003156006 -0.002035451668892222 -0.00015116821609096243
0.0131296888 -0.1003156006 -0.002047501904732138 -0.00015885057418636088
0.01845114678 -0.1003156006 -0.0020573904114611135 -0.00016003983068112548
0.02377260476 -0.1003156006 -0.0020653674047162404 -0.00015607348263843893
0.02909406275 -0.1003156006 -0.0020721999824427064 -0.00015182632423081034
0.03441552073 -0.1003156006 -0.002079033901744354 -0.00014758505816408953
0.03973697871 -0.1003156006 -0.0020868586708620456 -0.00014359293464938678
0.04505843669 -0.1003156006 -0.0021001525319945744 -0.00013907388631240178
0.05037989467 -0.1003156006 -0.002122085367464382 -0.00013322812239196073
0.05570135266 -0.1003156006 -0.0021441091298488512 -0.00012680631781761378
0.06102281436 -0.1003156006 -0.0021659484433006948 -0.0001203128352726948
0.06634426862 -0.1003156006 -0.002187931692851945 -0.00011427119295136675
0.0716657266 -0.1003156006 -0.0022098858272342494 -0.00010853965974987834
0.07698718458 -0.1003156006 -0.002232545822514919 -0.00011663266316121511
0.08230864257 -0.1003156006 -0.002255226807976022 -0.0001258206265347614
0.08763010055 -0.1003156006 -0.0022781347436963443 -0.00013533029180422037
0.09295155853 -0.1003156006 -0.0023008523000743013 -0.00014449368826540763
0.09827301651 -0.1003156006 -0.002323355481478306 -0.00015346007364122713
0.1035944745 -0.1003156006 -0.002341306838676297 -0.00016234036795419085
0.1089159325 -0.1003156006 -0.0023490916604401763 -0.0001705565003802626
0.1142373979 -0.1003156006 -0.002356691976935787 -0.00017877047967410377
0.1195588559 -0.1003156006 -0.0023658497252905058 -0.00018642482523716024
0.1248803139 -0.1003156006 -0.0023745681814133657 -0.00019428907991549436
0.1302017719 -0.1003156006 -0.002382872204419488 -0.00020228057378972086
0.1355232298 -0.1003156006 -0.0023919331262744754 -0.0002020285928010162
0.1408446878 -0.1003156006 -0.002402240566685373 -0.00019587223026155013
0.1461661458 -0.1003156006 -0.0024129657251086042 -0.00019058434004391747
0.1514876038 -0.1003156006 -0.002423882493036953 -0.00018529816313620753
0.1568090618 -0.1003156006 -0.002434618136326344 -0.0001800074588511663
0.1621305197 -0.1003156006 -0.0024454567358749716 -0.00017468638187279376
0.1674519777 -0.1003156006 -0.0024681892068608526 -0.0001733578721224946
0.1727734357 -0.1003156006 -0.0024967043750213644 -0.00017364919249994928
0.1780948937 -0.1003156006 -0.002525276544951278 -0.00017394253734277093
0.1834163517 -0.1003156006 -0.0025539742933639643 -0.0001742382395202665
0.1887378097 -0.1003156006 -0.0025817143119253516 -0.00017476941214964356
0.1940592676 -0.1003156006 -0.002608798319896022 -0.0001759261896719147
0.1993807256 -0.1003156006 -0.0026358724623626885 -0.00019418370027234056
0.2047021836 -0.1003156006 -0.002662757704402262 -0.0002180615185286222
0.2100236416 -0.1003156006 -0.0026895300460589573 -0.00024181306308980547
0.2153450996 -0.1003156006 -0.0027145874230675416 -0.0002640723202846814
0.2206665576 -0.1003156006 -0.0027401643544532886 -0.0002870400324192136
0.2259880155 -0.1003156006 -0.0027656861840644597 -0.00031001794678112073
0.2313094735 -0.1003156006 -0.002768426520693933 -0.00034225163546863
0.2366309315 -0.1003156006 -0.0027651157568786694 -0.00037485909296860326
0.2419523895 -0.1003156006 -0.002761623564917165 -0.00040670051018236247
0.2472738475 -0.1003156006 -0.002758156913553756 -0.00043863595285360563
0.2525953054 -0.1003156006 -0.0027545560723447405 -0.0004706054728589276
0.2579167783 -0.1003156006 -0.0027516244865434447 -0.0005011977167893155
0.2632382214 -0.1003156006 -0.00273393671666298 -0.0005179158198837134
0.2685596943 -0.1003156006 -0.0027126689082646884 -0.0005312840374846084
0.2738811374 -0.1003156006 -0.002690648683567298 -0.0005446673416604558
0.2792026103 -0.1003156006 -0.0026691507598367455 -0.0005580864966340755
0.2845240533 -0.1003156006 -0.002648919254235405 -0.0005708483795447675
0.2898455262 -0.1003156006 -0.0026284852428201514 -0.0005836183852612034
0.2951669693 -0.1003156006 -0.0026068130553876315 -0.0005901119268624824
0.3004884422 -0.1003156006 -0.002585188360668425 -0.0005957100565236363
0.3058098853 -0.1003156006 -0.0025641909302873715 -0.0006002616504837895
0.3111313581 -0.1003156006 -0.0025430091978992293 -0.0006048047294142761
0.3164528012 -0.1003156006 -0.0025220529784265276 -0.0006093536818413995
0.3217742741 -0.1003156006 -0.0025003992592820224 -0.0006137504663825983
0.3270957172 -0.1003156006 -0.0024700962294153302 -0.0006141326959616337
0.3324171901 -0.1003156006 -0.0024400363820014106 -0.0006145764335827976
0.3377386332 -0.1003156006 -0.002410089056770012 -0.0006150049425991279
0.343060106 -0.1003156006 -0.002380061543755126 -0.0006154584226623419
0.3483815491 -0.1003156006 -0.0023509114302865757 -0.0006145364382045941
0.353703022 -0.1003156006 -0.0023192394370805374 -0.000609165316587168
0.3590244651 -0.1003156006 -0.0022808963976538358 -0.0005940593865407149
0.364345938 -0.1003156006 -0.002242539884842707 -0.0005789431956096063
0.369667381 -0.1003156006 -0.00220528809597958 -0.000563164100975611
0.3749888539 -0.1003156006 -0.0021680174623481593 -0.0005474701393255641
0.380310297 -0.1003156006 -0.002130408189180578 -0.0005320450207250782
0.3856317699 -0.1003156006 -0.0020895555188211916 -0.0005091063260968565
0.390953213 -0.1003156006 -0.002048718827971731 -0.00048254106078349663
0.3962746859 -0.1003156006 -0.002008100954471324 -0.00045600368343772754
0.4015961289 -0.1003156006 -0.001967728912061175 -0.00042963562767516536
0.4069176018 -0.1003156006 -0.001927101610134031 -0.0004031900288265701
0.4122390449 -0.1003156006 -0.001885644409767223 -0.00036977465647537717
0.4175605178 -0.1003156006 -0.0018404220993933095 -0.00032696728283244887
0.4228819609 -0.1003156006 -0.001794098754138748 -0.00028435757306329707
0.4282034338 -0.1003156006 -0.0017480254358057728 -0.000241567829576656
0.4335248768 -0.1003156006 -0.00170429419113 -0.0001987826694154121
0.4388463497 -0.1003156006 -0.0016615482758961756 -0.00015082818020576208
0.4441677928 -0.1003156006 -0.0016220037303023719 -8.886363462566163e-05
0.4494892657 -0.1003156006 -0.0015828457722127929 -2.7119636819137827e-05
0.4548107088 -0.1003156006 -0.0015454152346995554 3.3540648630022896e-05
0.4601321816 -0.1003156006 -0.0015068711407827634 9.481096407432652e-05
0.4654536247 -0.1003156006 -0.0014730433018214013 0.00015973947983012718
0.4707750976 -0.1003156006 -0.001447599750736989 0.00022983820960068797
0.4760965407 -0.1003156006 -0.0014222146242034543 0.0002987411283630772
0.4814180136 -0.1003156006 -0.001396832249784957 0.0003676492713973676
0.4867394567 -0.1003156006 -0.001371475561818347 0.00043669689959506015
0.4920609295 -0.1003156006 -0.0013522165164750965 0.000504576440835524
0.4973823726 -0.1003156006 -0.0013346166121191016 0.0005721114668249403
0.5027038455 -0.1003156006 -0.00131730247454229 0.0006396809213688218
0.5080252886 -0.1003156006 -0.0013001047463073396 0.0007072112861190859
0.5133467317 -0.1003156006 -0.0012816599836834625 0.0007732301436395813
0.5186682343 -0.1003156006 -0.00126209918906867 0.0008369327507066665
0.5239896774 -0.1003156006 -0.0012425012631892321 0.000900609427648466
0.5293111205 -0.1003156006 -0.001223014913577292 0.0009645901816156343
0.5346325636 -0.1003156006 -0.0011996137834843522 0.0010302190755931092
0.5399540663 -0.1003156006 -0.001170236864365661 0.001095266896756109
0.5452755094 -0.1003156006 -0.0011403691681960216 0.0011596555526741778
0.5505969524 -0.1003156006 -0.0011116782334252755 0.001225447744934716
0.5559183955 -0.1003156006 -0.001075194715258536 0.001297646616195919
0.5612398982 -0.1003156006 -0.001032661333330037 0.001369090653639653
0.5665613413 -0.1003156006 -0.0009908287099186775 0.0014409233559734295
0.5718827844 -0.1003156006 -0.0009478945747334156 0.0015196226768046052
0.5772042274 -0.1003156006 -0.0008952913573593884 0.0016030788386950556
0.5825257301 -0.1003156006 -0.0008421294118282416 0.0016864509639429313
0.5878471732 -0.1003156006 -0.0007876900405972377 0.0017773480225316723
0.5931686163 -0.1003156006 -0.0007260016098442257 0.0018761599234374412
0.5984900594 -0.1003156006 -0.0006641009388074588 0.0019731397440695022
0.6038115621 -0.1003156006 -0.0005948904301118274 0.002083758623138736
0.6091330051 -0.1003156006 -0.0005263449793961053 0.0021980838907232464
0.6144544482 -0.1003156006 -0.0004499133971273131 0.0023210972524296512
0.6197758913 -0.1003156006 -0.00037278358592858496 0.002454678470292813
0.625097394 -0.1003156006 -0.0002935104536824798 0.0025956480922121046
0.6304188371 -0.1003156006 -0.00020849005459082186 0.0027511321563383853
0.6357402802 -0.1003156006 -0.00012744712451453577 0.0029150965450781426
0.6410617828 -0.1003156006 -4.164901522169137e-05 0.0030914787406566484
0.6463832259 -0.1003156006 4.545069564723984e-05 0.0032787441590235813
0.651704669 -0.1003156006 0.000134415594417922 0.0034751499481957483
0.6570261121 -0.1003156006 0.00021817852210270257 0.003691509848398034
0.6623476148 -0.1003156006 0.0003025571302021899 0.003921746809018288
0.6676690578 -0.1003156006 0.00038659633389002637 0.004165321339133736
0.6729905009 -0.1003156006 0.00046417020434737184 0.004432561415616951
0.678311944 -0.1003156006 0.0005340060823531364 0.004712795058730337
0.6836334467 -0.1003156006 0.0006003378337712528 0.005009889029117766
0.6889548898 -0.1003156006 0.0006599629109984522 0.00533020781510134
0.6942763329 -0.1003156006 0.0007051615399124463 0.005668349656589691
0.6995977759 -0.1003156006 0.0007413228961002855 0.006023486221989527
0.7049192786 -0.1003156006 0.0007645154719733591 0.006397851301809699
0.7102407217 -0.1003156006 0.0007717450551823921 0.006791838887054295
0.7155621648 -0.1003156006 0.0007574605197305915 0.007207762521200333
0.7208836079 -0.1003156006 0.0007216370084954926 0.007638174294517792
0.7262051105 -0.1003156006 0.0006646709869957242 0.00808430498302973
0.7315265536 -0.1003156006 0.0005823344003039482 0.008550013694007715
0.7368479967 -0.1003156006 0.0004626999333943338 0.009033354581744906
0.7421694398 -0.1003156006 0.0003177529418931015 0.009531198145265495
0.7474909425 -0.1003156006 0.00014387839762083953 0.010024379217957147
0.7528123856 -0.1003156006 -6.900832884778094e-05 0.010535109508744409
0.7581338286 -0.1003156006 -0.00031794740688397113 0.0110526463534941
-0.3008363545 -0.09699654579 -0.00040290214121396756 -0.0009437764025199054
-0.2955148816 -0.09699654579 -0.00041625995030263003 -0.0009169540952650811
-0.2901934385 -0.09699654579 -0.0004317565281576473 -0.000891248896695749
-0.2848719656 -0.09699654579 -0.00044716752014195614 -0.0008691343127007008
-0.2795505226 -0.09699654579 -0.00046161106506431213 -0.0008440009276837224
-0.2742290497 -0.09699654579 -0.0004809017461944155 -0.0008194386798741878
-0.2689076066 -0.09699654579 -0.000503896537540382 -0.0007960010021408818
-0.2635861337 -0.09699654579 -0.0005308475086101127 -0.0007653972899944536
-0.2582646906 -0.09699654579 -0.0005628101412744762 -0.000719615858957926
-0.2529432178 -0.09699654579 -0.0005990130089156643 -0.0006705038631043638
-0.2476217598 -0.09699654579 -0.0006360704118651113 -0.0006218976918857317
-0.2423003018 -0.09699654579 -0.0006656635918523307 -0.0005814945301176721
-0.2369788438 -0.09699654579 -0.0006801386836921831 -0.0005677263652280568
-0.2316573858 -0.09699654579 -0.0006937243813737591 -0.0005581748015131673
-0.2263359278 -0.09699654579 -0.0007029154844434188 -0.00055093734347717
-0.2210144699 -0.09699654579 -0.0007280366564769662 -0.0005442361289785682
-0.2156930119 -0.09699654579 -0.0007570397262352319 -0.0005436811815639699
-0.2103715539 -0.09699654579 -0.000783922236268731 -0.000550335890586167
-0.2050500959 -0.09699654579 -0.0007882174278075564 -0.0005328089652262296
-0.1997286379 -0.09699654579 -0.000779455970569689 -0.0005018212001309282
-0.19440718 -0.09699654579 -0.0007695767520899243 -0.00047069359495754753
-0.189085722 -0.09699654579 -0.0007792888580573119 -0.00043553758606461963
-0.183764264 -0.09699654579 -0.0007978382701327318 -0.0003991428269451845
-0.178442806 -0.09699654579 -0.0008139553525002194 -0.00036212177543469364
-0.173121348 -0.09699654579 -0.0008457178802239717 -0.00032102349088011903
-0.16779989 -0.09699654579 -0.0008893570783955168 -0.0002702891619439952
-0.1624784321 -0.09699654579 -0.0009336980258574202 -0.00021487562236391738
-0.1571569741 -0.09699654579 -0.0009834232478068876 -0.00017015981864414883
-0.1518355161 -0.09699654579 -0.0010315723840731495 -0.00013902038661813188
-0.1465140581 -0.09699654579 -0.0010819860559052044 -0.0001093851161471788
-0.1411926001 -0.09699654579 -0.0011310431726589583 -8.404656445676928e-05
-0.1358711421 -0.09699654579 -0.0011772902704960354 -7.286209990334008e-05
-0.1305496842 -0.09699654579 -0.001224022429948989 -6.246598903165644e-05
-0.1252282262 -0.09699654579 -0.0012712248653582966 -5.1967840060699415e-05
-0.1199067682 -0.09699654579 -0.0013170863252759076 -4.6716585391014564e-05
-0.1145853102 -0.09699654579 -0.0013607351708756878 -4.252162349212036e-05
-0.1092638522 -0.09699654579 -0.0014049078314688475 -3.852299357507262e-05
-0.1039423943 -0.09699654579 -0.001450814548504957 -3.459265884861487e-05
-0.09862093627 -0.09699654579 -0.0014960417623611705 -3.207705684955004e-05
-0.09329947084 -0.09699654579 -0.0015423730123317924 -2.9780489610087847e-05
-0.08797801286 -0.09699654579 -0.0015894963852432899 -2.7658269229381128e-05
-0.08265655488 -0.09699654579 -0.0016357278835932207 -2.5395970262525007e-05
-0.0773350969 -0.09699654579 -0.0016731698705821426 -2.5557496813620065e-05
-0.07201363891 -0.09699654579 -0.001710441954330995 -2.632534033430146e-05
-0.06669218093 -0.09699654579 -0.0017479232408117303 -2.7118221608566777e-05
-0.06137072667 -0.09699654579 -0.0017845957809399392 -2.819848454967637e-05
-0.05604926869 -0.09699654579 -0.001812169884922499 -3.364687526748751e-05
-0.05072781071 -0.09699654579 -0.0018380685429218212 -3.944151664540379e-05
-0.045406349 -0.09699654579 -0.0018638801865805523 -4.52388629761646e-05
-0.04008489102 -0.09699654579 -0.0018893777917480508 -5.1397063056874896e-05
-0.03476343304 -0.09699654579 -0.0019133718339245341 -5.9554969742997566e-05
-0.02944197692 -0.09699654579 -0.0019343606904389482 -7.167534746547208e-05
-0.02412051894 -0.09699654579 -0.00195532625245167 -8.365704573053245e-05
-0.01879905909 -0.09699654579 -0.00197633359257268 -9.575695686073679e-05
-0.01347760204 -0.09699654579 -0.0019972731169764562 -0.00010814446365488094
-0.00815614406 -0.09699654579 -0.0020122329665372713 -0.00011849670430222383
-0.00283468538 -0.09699654579 -0.0020223262934435673 -0.00012719282337101577
0.002486772602 -0.09699654579 -0.002031851795253654 -0.00013608893376365272
0.007808230817 -0.09699654579 -0.0020413594798678733 -0.00014506225345800564
0.0131296888 -0.09699654579 -0.002051182245988264 -0.00015384951627576358
0.01845114678 -0.09699654579 -0.002058505791174797 -0.0001549537727170448
0.02377260476 -0.09699654579 -0.0020636249077624533 -0.00015024465000726484
0.02909406275 -0.09699654579 -0.002067640231875483 -0.00014523638931568324
0.03441552073 -0.09699654579 -0.002071786655514345 -0.0001401721546318501
0.03973697871 -0.09699654579 -0.002076785649730383 -0.0001354374993481413
0.04505843669 -0.09699654579 -0.002088411465143992 -0.00012981095795722082
0.05037989467 -0.09699654579 -0.00211075084899419 -0.00012245369043427428
0.05570135266 -0.09699654579 -0.00213308186718503 -0.00011493495676535125
0.06102281436 -0.09699654579 -0.0021554738318437486 -0.00010700536598229294
0.06634426862 -0.09699654579 -0.0021778711449147877 -9.978273129688859e-05
0.0716657266 -0.09699654579 -0.002200194195992818 -9.25572131580015e-05
0.07698718458 -0.09699654579 -0.0022239852083817805 -0.0001023015645724255
0.08230864257 -0.09699654579 -0.0022477218237712923 -0.00011304156352190315
0.08763010055 -0.09699654579 -0.0022715296816274762 -0.0001234995395990852
0.09295155853 -0.09699654579 -0.002295108494199074 -0.00013374825808445053
0.09827301651 -0.09699654579 -0.002318689997245956 -0.00014418017306751325
0.1035944745 -0.09699654579 -0.0023366250264341658 -0.00015437987121486702
0.1089159325 -0.09699654579 -0.0023425478671310926 -0.00016364444124436435
0.1142373979 -0.09699654579 -0.00234946158703973 -0.00017243408525485898
0.1195588559 -0.09699654579 -0.002357121091239677 -0.0001808434463590055
0.1248803139 -0.09699654579 -0.0023648585818404665 -0.00018925136147336655
0.1302017719 -0.09699654579 -0.00237203305530178 -0.00019799527612198762
0.1355232298 -0.09699654579 -0.002380404444756809 -0.00019630027253408628
0.1408446878 -0.09699654579 -0.0023910959450292907 -0.0001887466554220027
0.1461661458 -0.09699654579 -0.002401730458476578 -0.0001812221851720711
0.1514876038 -0.09699654579 -0.002411129041064035 -0.00017387977739983726
0.1568090618 -0.09699654579 -0.00242063455102935 -0.00016653846002112423
0.1621305197 -0.09699654579 -0.0024304767164074156 -0.00015999826945311155
0.1674519777 -0.09699654579 -0.002456354893834154 -0.00015797928756271421
0.1727734357 -0.09699654579 -0.0024878368833365027 -0.00015756003777833501
0.1780948937 -0.09699654579 -0.0025198945141064527 -0.00015675563942477098
0.1834163517 -0.09699654579 -0.0025516448274163737 -0.00015606663024514994
0.1887378097 -0.09699654579 -0.0025822963250758933 -0.00015614223828396467
0.1940592676 -0.09699654579 -0.0026129054059275693 -0.00015622107683386488
0.1993807256 -0.09699654579 -0.0026442197383402684 -0.00017702531250220113
0.2047021836 -0.09699654579 -0.0026756360894787962 -0.0002035129081757238
0.2100236416 -0.09699654579 -0.002705069363714647 -0.00022817590517383083
0.2153450996 -0.09699654579 -0.002734178734933048 -0.000252842332452794
0.2206665576 -0.09699654579 -0.0027633505381372226 -0.00027752125861240273
0.2259880155 -0.09699654579 -0.002792618633802386 -0.00030217644370323965
0.2313094735 -0.09699654579 -0.002795890394753901 -0.00033627866319686935
0.2366309315 -0.09699654579 -0.002791160338432757 -0.00037220905437670374
0.2419523895 -0.09699654579 -0.0027864087469538722 -0.00040814823824587
0.2472738475 -0.09699654579 -0.0027818694625048436 -0.00044407786061866945
0.2525953054 -0.09699654579 -0.0027777856904732828 -0.0004783198397172945
0.2579167783 -0.09699654579 -0.00277399103406446 -0.0005113358304505008
0.2632382214 -0.09699654579 -0.0027536868829246552 -0.0005285354604392364
0.2685596943 -0.09699654579 -0.0027300873875955277 -0.0005420762734605206
0.2738811374 -0.09699654579 -0.002707512985552678 -0.0005557059040270861
0.2792026103 -0.09699654579 -0.002685448087020426 -0.0005688239404936665
0.2845240533 -0.09699654579 -0.0026636256852409592 -0.000582304711032005
0.2898455262 -0.09699654579 -0.0026410322015984022 -0.0005955963245502526
0.2951669693 -0.09699654579 -0.0026186378592854 -0.0006027290672249765
0.3004884422 -0.09699654579 -0.0025970853776639997 -0.0006083758147167296
0.3058098853 -0.09699654579 -0.002575176275013935 -0.0006142092055799555
0.3111313581 -0.09699654579 -0.0025535298332172865 -0.0006200327595310135
0.3164528012 -0.09699654579 -0.0025319053495313263 -0.0006258002796388052
0.3217742741 -0.09699654579 -0.0025099056977967616 -0.0006302414647478538
0.3270957172 -0.09699654579 -0.0024781146102483354 -0.000631920698244778
0.3324171901 -0.09699654579 -0.002446495972003248 -0.0006335878434634012
0.3377386332 -0.09699654579 -0.0024147680628159927 -0.0006346882789329719
0.343060106 -0.09699654579 -0.0023838533119672164 -0.0006352718426788839
0.3483815491 -0.09699654579 -0.0023528156707169415 -0.0006360480722223808
0.353703022 -0.09699654579 -0.0023187362765155 -0.0006314480485385312
0.3590244651 -0.09699654579 -0.0022784604017207846 -0.000616393238711359
0.364345938 -0.09699654579 -0.0022391500751420914 -0.0006012964549757771
0.369667381 -0.09699654579 -0.002199947925465797 -0.0005862836591401837
0.3749888539 -0.09699654579 -0.002161216925162348 -0.000571406547533683
0.380310297 -0.09699654579 -0.002122681171958821 -0.000556088641315974
0.3856317699 -0.09699654579 -0.002081704139941972 -0.0005328606926898566
0.390953213 -0.09699654579 -0.002039469221872126 -0.0005075067526388784
0.3962746859 -0.09699654579 -0.0019968171599012647 -0.00048277335514966806
0.4015961289 -0.09699654579 -0.001955026581131179 -0.00045708516253464506
0.4069176018 -0.09699654579 -0.0019137341375894848 -0.0004311194008478324
0.4122390449 -0.09699654579 -0.0018691486683173849 -0.0003979993715033122
0.4175605178 -0.09699654579 -0.0018200733256297076 -0.0003553629376802024
0.4228819609 -0.09699654579 -0.0017732506703023424 -0.0003123788438665311
0.4282034338 -0.09699654579 -0.0017270727970841492 -0.0002694442036903233
0.4335248768 -0.09699654579 -0.0016807256342505161 -0.00022643883220995793
0.4388463497 -0.09699654579 -0.0016346325613710601 -0.00017704736883300946
0.4441677928 -0.09699654579 -0.0015939761290720586 -0.00011380192368534418
0.4494892657 -0.09699654579 -0.001553217863810536 -5.090280020146099e-05
0.4548107088 -0.09699654579 -0.0015123328591167041 1.1990402350919365e-05
0.4601321816 -0.09699654579 -0.0014719922336334109 7.463429001416094e-05
0.4654536247 -0.09699654579 -0.001438619903422441 0.0001397695405454241
0.4707750976 -0.09699654579 -0.0014129306221932608 0.00021085573103833994
0.4760965407 -0.09699654579 -0.0013870020095430964 0.0002829335020326972
0.4814180136 -0.09699654579 -0.0013613629701380856 0.0003540570053281077
0.4867394567 -0.09699654579 -0.001335727608650149 0.00042416451996046855
0.4920609295 -0.09699654579 -0.0013172210766518812 0.0004925100780986285
0.4973823726 -0.09699654579 -0.0013004684814017667 0.000560484125165429
0.5027038455 -0.09699654579 -0.0012835700989268038 0.0006279996851976628
0.5080252886 -0.09699654579 -0.0012666063900448727 0.0006958266389333743
0.5133467317 -0.09699654579 -0.001248554950739105 0.0007611473583334577
0.5186682343 -0.09699654579 -0.0012290455888241904 0.000823687716436078
0.5239896774 -0.09699654579 -0.0012092221369824744 0.0008873810876900519
0.5293111205 -0.09699654579 -0.0011893467629151577 0.0009504678297121265
0.5346325636 -0.09699654579 -0.0011648724749816679 0.0010128236263028205
0.5399540663 -0.09699654579 -0.001134501910418655 0.001076422211290049
0.5452755094 -0.09699654579 -0.0011042550479103172 0.0011408712296090795
0.5505969524 -0.09699654579 -0.0010738655197746834 0.0012044005117683965
0.5559183955 -0.09699654579 -0.0010331544983842747 0.0012719507523743375
0.5612398982 -0.09699654579 -0.0009909445677757731 0.001343272909595543
0.5665613413 -0.09699654579 -0.000948891001540806 0.0014145600679413867
0.5718827844 -0.09699654579 -0.0008994018303652846 0.0014876931884778041
0.5772042274 -0.09699654579 -0.0008458086568525446 0.0015699178743241358
0.5825257301 -0.09699654579 -0.0007921424158500265 0.0016521201475742898
0.5878471732 -0.09699654579 -0.0007314060238807446 0.001737966601097832
0.5931686163 -0.09699654579 -0.0006668867114622348 0.0018344992168502225
0.5984900594 -0.09699654579 -0.0005996135842824125 0.0019303594477464233
0.6038115621 -0.09699654579 -0.0005280332303462425 0.0020383230278293715
0.6091330051 -0.09699654579 -0.000450194707991234 0.002152005688009764
0.6144544482 -0.09699654579 -0.0003738815610889412 0.002271730571025165
0.6197758913 -0.09699654579 -0.0002882410594131433 0.002406808509888036
0.625097394 -0.09699654579 -0.00020320420146757964 0.002545551725008529
0.6304188371 -0.09699654579 -0.00011474876059613242 0.002699351683823388
0.6357402802 -0.09699654579 -2.0273169534169733e-05 0.0028587765194598956
0.6410617828 -0.09699654579 7.032078891217325e-05 0.0030320708768029002
0.6463832259 -0.09699654579 0.0001665855795321968 0.0032196534532286333
0.651704669 -0.09699654579 0.00026407456984123794 0.0034187828152278978
0.6570261121 -0.09699654579 0.0003577003548864299 0.003638860210329496
0.6623476148 -0.09699654579 0.00045023818471734623 0.003870413116004698
0.6676690578 -0.09699654579 0.0005428769126418998 0.004116325020159172
0.6729905009 -0.09699654579 0.0006316577278701107 0.004381858048501908
0.678311944 -0.09699654579 0.000719048240738804 0.004665266680397522
0.6836334467 -0.09699654579 0.0007986267979091823 0.004964301098384038
0.6889548898 -0.09699654579 0.0008679424185920685 0.005287549360448503
0.6942763329 -0.09699654579 0.0009260851680792278 0.005630830412070843
0.6995977759 -0.09699654579 0.000977539000051218 0.005996261229448446
0.7049192786 -0.09699654579 0.0010130077628070038 0.006379773364272654
0.7102407217 -0.09699654579 0.0010310696439245542 0.006784261361935739
0.7155621648 -0.09699654579 0.0010257639614698526 0.007213686932988288
0.7208836079 -0.09699654579 0.0010031973458589825 0.00766409773340968
0.7262051105 -0.09699654579 0.0009555602313503611 0.008132070860788881
0.7315265536 -0.09699654579 0.0008800412534405302 0.008613464114919932
0.7368479967 -0.09699654579 0.0007773989183560473 0.009113564184641163
0.7421694398 -0.09699654579 0.0006366356634963342 0.009624940761083396
0.7474909425 -0.09699654579 0.00046844794944430853 0.01015017879702231
0.7528123856 -0.09699654579 0.00025579790894991034 0.010680059790300307
0.7581338286 -0.09699654579 9.19206329856369e-06 0.01121655091182574
-0.3008363545 -0.09367749095 -0.00038480775630188595 -0.0009356593148676734
-0.2955148816 -0.09367749095 -0.0003982317573473886 -0.0009078340507149405
-0.2901934385 -0.09367749095 -0.000415761767172882 -0.0008811323192690287
-0.2848719656 -0.09367749095 -0.00042849901055465664 -0.0008518376412636569
-0.2795505226 -0.09367749095 -0.00044395367802927386 -0.0008269549006171227
-0.2742290497 -0.09367749095 -0.00046301930276359697 -0.0007988078490037584
-0.2689076066 -0.09367749095 -0.0004860265145751343 -0.0007726125838927797
-0.2635861337 -0.09367749095 -0.0005173826755193286 -0.0007541319662056241