VARIABLES = X,Y,phix,phiy
ZONE I=200,J=200,F=POINT 
-0.3008363545 -0.1003156006 0.0011341239695295718 -0.0006870062681448413
-0.2955148816 -0.1003156006 0.0011305493564433794 -0.000639928273488548
-0.2901934385 -0.1003156006 0.0011275230982490645 -0.0006043053201602516
-0.2848719656 -0.1003156006 0.0011216167336031543 -0.0005649630259751542
-0.2795505226 -0.1003156006 0.0011099150546743045 -0.0005231594051683042
-0.2742290497 -0.1003156006 0.0010867132272341605 -0.00048404140961523365
-0.2689076066 -0.1003156006 0.0010606305451168667 -0.00043856702874600336
-0.2635861337 -0.1003156006 0.001047714667020528 -0.00041287727477434284
-0.2582646906 -0.1003156006 0.0010292069495741656 -0.0003993794562677985
-0.2529432178 -0.1003156006 0.001009127357328728 -0.000392436216641975
-0.2476217598 -0.1003156006 0.0009856509414601217 -0.0003834225878950137
-0.2423003018 -0.1003156006 0.000950477894727714 -0.00037021642682105764
-0.2369788438 -0.1003156006 0.0008975413113179541 -0.00036019630122278155
-0.2316573858 -0.1003156006 0.0008341813457671368 -0.000354386720015109
-0.2263359278 -0.1003156006 0.0007769775937730637 -0.0003529710638164935
-0.2210144699 -0.1003156006 0.0007632426718825803 -0.0003650243246232487
-0.2156930119 -0.1003156006 0.0007479157503226415 -0.00038125782464452283
-0.2103715539 -0.1003156006 0.0007365721589468257 -0.00040525564187786757
-0.2050500959 -0.1003156006 0.0007399810634005411 -0.00040587907337439775
-0.1997286379 -0.1003156006 0.0007436271079982125 -0.000415926647064479
-0.19440718 -0.1003156006 0.0007537814412501368 -0.00042674594480509724
-0.189085722 -0.1003156006 0.0007615403283191611 -0.0004170935458644288
-0.183764264 -0.1003156006 0.0007713045437511131 -0.0004044872336691716
-0.178442806 -0.1003156006 0.0007799994985651981 -0.00039166383308877857
-0.173121348 -0.1003156006 0.0007788133591087057 -0.0003712088512098475
-0.16779989 -0.1003156006 0.0007723491297681244 -0.00035625581636021845
-0.1624784321 -0.1003156006 0.0007663087440750885 -0.0003356386962303666
-0.1571569741 -0.1003156006 0.0007577746445453135 -0.00031756178777815245
-0.1518355161 -0.1003156006 0.0007473420164099132 -0.0003047862752746675
-0.1465140581 -0.1003156006 0.0007383453140670037 -0.00029196657687178244
-0.1411926001 -0.1003156006 0.0007232811504750218 -0.0002759229846281446
-0.1358711421 -0.1003156006 0.0007032734592982429 -0.0002588984743704479
-0.1305496842 -0.1003156006 0.0006832092872763389 -0.00024187454553725924
-0.1252282262 -0.1003156006 0.000662166298727585 -0.0002245524593108031
-0.1199067682 -0.1003156006 0.0006387567460398813 -0.00021088018312978587
-0.1145853102 -0.1003156006 0.0006145738354557673 -0.0002002120498043976
-0.1092638522 -0.1003156006 0.0005898109642454673 -0.00018957631676986406
-0.1039423943 -0.1003156006 0.0005658758254074912 -0.00017817637255878495
-0.09862093627 -0.1003156006 0.0005482323096381777 -0.00018336316295065107
-0.09329947084 -0.1003156006 0.0005315762649765103 -0.00018966541218556985
-0.08797801286 -0.1003156006 0.0005147622571168287 -0.00019596528637464488
-0.08265655488 -0.1003156006 0.0004976298879262151 -0.00020133101588394047
-0.0773350969 -0.1003156006 0.0004893229078027093 -0.00020310509082974046
-0.07201363891 -0.1003156006 0.0004812925394994243 -0.00020455881957720577
-0.06669218093 -0.1003156006 0.00047322233879921327 -0.00020601662936328016
-0.06137072667 -0.1003156006 0.00046551027620797276 -0.00020780651043636673
-0.05604926869 -0.1003156006 0.0004543592439936902 -0.00020300963541205038
-0.05072781071 -0.1003156006 0.0004425255472602496 -0.00019774258707830775
-0.045406349 -0.1003156006 0.0004308176062206503 -0.00019256377390135422
-0.04008489102 -0.1003156006 0.0004194051528330834 -0.00018688463932376142
-0.03476343304 -0.1003156006 0.0004063235004557325 -0.00018282911138497502
-0.02944197692 -0.1003156006 0.00039205004266877294 -0.00018430238561638828
-0.02412051894 -0.1003156006 0.0003774934961788708 -0.00018597511966692267
-0.01879905909 -0.1003156006 0.00036273806043886554 -0.00018800791172435507
-0.01347760204 -0.1003156006 0.000348311479038707 -0.00018961568966507076
-0.00815614406 -0.1003156006 0.0003414973822911565 -0.00019232076782919769
-0.00283468538 -0.1003156006 0.0003417896704371811 -0.00019653912845887884
0.002486772602 -0.1003156006 0.0003434104980505704 -0.00020192678095842142
0.007808230817 -0.1003156006 0.000345058262481145 -0.00020733411685185484
0.0131296888 -0.1003156006 0.00034554229406811264 -0.00021176436757738156
0.01845114678 -0.1003156006 0.00034919965216334987 -0.0002015002814756274
0.02377260476 -0.1003156006 0.0003565405484639473 -0.0001802183943388182
0.02909406275 -0.1003156006 0.00036526169153786156 -0.00015786004456565256
0.03441552073 -0.1003156006 0.00037386710780836657 -0.00013550455869035304
0.03973697871 -0.1003156006 0.00038142959870017166 -0.00011409614599451024
0.04505843669 -0.1003156006 0.00037295271111112427 -9.140048512806329e-05
0.05037989467 -0.1003156006 0.0003395230899713068 -6.615206721297371e-05
0.05570135266 -0.1003156006 0.00030491541014773967 -3.9152538654139556e-05
0.06102281436 -0.1003156006 0.00027004283753058537 -1.2049896033755918e-05
0.06634426862 -0.1003156006 0.00023623827297402888 1.3818545606221658e-05
0.0716657266 -0.1003156006 0.0002031279370882625 3.87497007192314e-05
0.07698718458 -0.1003156006 0.00017098402328975982 2.3277983559271145e-05
0.08230864257 -0.1003156006 0.00013956101859188835 4.425446375692241e-06
0.08763010055 -0.1003156006 0.00010711674656876132 -1.5570767392343892e-05
0.09295155853 -0.1003156006 7.563287112441843e-05 -3.434870002873168e-05
0.09827301651 -0.1003156006 4.460041376281651e-05 -5.2447937660753235e-05
0.1035944745 -0.1003156006 2.536338355703546e-05 -6.723178943002247e-05
0.1089159325 -0.1003156006 3.2751115444503036e-05 -7.484887066401728e-05
0.1142373979 -0.1003156006 4.018022907556092e-05 -8.246893369215235e-05
0.1195588559 -0.1003156006 4.521028583591621e-05 -8.911196537037527e-05
0.1248803139 -0.1003156006 5.089977146780965e-05 -9.605711383292966e-05
0.1302017719 -0.1003156006 5.742337080947266e-05 -0.00010331369836233386
0.1355232298 -0.1003156006 5.6635425951089364e-05 -9.203933540877605e-05
0.1408446878 -0.1003156006 5.0451176278140206e-05 -6.787886996634204e-05
0.1461661458 -0.1003156006 4.315932157134152e-05 -4.570252418724983e-05
0.1514876038 -0.1003156006 3.6158767186968686e-05 -2.3536296208138993e-05
0.1568090618 -0.1003156006 2.8900105894398096e-05 -1.3583951514463157e-06
0.1621305197 -0.1003156006 2.178904996714599e-05 2.0922649726174284e-05
0.1674519777 -0.1003156006 -7.292007482576378e-06 2.7293727764654846e-05
0.1727734357 -0.1003156006 -4.617830914234382e-05 2.6314855378122187e-05
0.1780948937 -0.1003156006 -8.504995850968043e-05 2.534756361019765e-05
0.1834163517 -0.1003156006 -0.00012404478256638444 2.437254811446434e-05
0.1887378097 -0.1003156006 -0.00016144054084597732 2.3580837163070218e-05
0.1940592676 -0.1003156006 -0.00019728242329994014 2.2443788410630593e-05
0.1993807256 -0.1003156006 -0.00021853213488861153 -8.975314630765065e-08
0.2047021836 -0.1003156006 -0.00023453068804035306 -2.9921494631469515e-05
0.2100236416 -0.1003156006 -0.0002503928695946985 -5.9375989060795504e-05
0.2153450996 -0.1003156006 -0.00026521799627711527 -8.521859124672815e-05
0.2206665576 -0.1003156006 -0.0002805773301139326 -0.00011287760344594872
0.2259880155 -0.1003156006 -0.00029583746956316154 -0.0001405670288439756
0.2313094735 -0.1003156006 -0.0002751231420083833 -0.00015695087898967593
0.2366309315 -0.1003156006 -0.00024704482147205745 -0.00016770502720227294
0.2419523895 -0.1003156006 -0.00022009830063707286 -0.00017811515258104398
0.2472738475 -0.1003156006 -0.00019303425122382508 -0.00018868295602939323
0.2525953054 -0.1003156006 -0.00016587900761786222 -0.000199486465159382
0.2579167783 -0.1003156006 -0.00014123761474374853 -0.000208863877027334
0.2632382214 -0.1003156006 -0.00012344222276834576 -0.00017762308508595233
0.2685596943 -0.1003156006 -0.00010686483212466373 -0.00013539623183573396
0.2738811374 -0.1003156006 -8.887737676358807e-05 -9.11643145949552e-05
0.2792026103 -0.1003156006 -7.224828916951712e-05 -4.859300595331187e-05
0.2845240533 -0.1003156006 -5.793436020681257e-05 -9.002724049126232e-06
0.2898455262 -0.1003156006 -4.3646808870253826e-05 3.058217921179888e-05
0.2951669693 -0.1003156006 -7.630098700295246e-05 7.118491372323439e-05
0.3004884422 -0.1003156006 -0.00011652211508691635 0.00011099917231432432
0.3058098853 -0.1003156006 -0.00015405811388439786 0.00014768237553569553
0.3111313581 -0.1003156006 -0.00019147923927765708 0.0001843462105606008
0.3164528012 -0.1003156006 -0.0002289176145608041 0.00022103695166602122
0.3217742741 -0.1003156006 -0.00026573487814189026 0.00025724519897621183
0.3270957172 -0.1003156006 -0.00031702520651625686 0.00025367166332797487
0.3324171901 -0.1003156006 -0.0003687732657900641 0.0002498986174075315
0.3377386332 -0.1003156006 -0.0004204990763629403 0.00024613971377216787
0.343060106 -0.1003156006 -0.0004722169537883347 0.00024239451263044517
0.3483815491 -0.1003156006 -0.0005196950224791551 0.00023940064236817375
0.353703022 -0.1003156006 -0.0005624651548638968 0.00023066300518191104
0.3590244651 -0.1003156006 -0.000593990481392813 0.00020857992268673376
0.364345938 -0.1003156006 -0.00062538001454405 0.00018654637156355572
0.369667381 -0.1003156006 -0.0006544396891057011 0.00016613182303357708
0.3749888539 -0.1003156006 -0.0006839262340448455 0.00014535235747718426
0.380310297 -0.1003156006 -0.0007140381913559032 0.00012425901638608353
0.3856317699 -0.1003156006 -0.0007297923704604339 9.088254220173311e-05
0.390953213 -0.1003156006 -0.0007388231283690298 5.711928779105548e-05
0.3962746859 -0.1003156006 -0.0007477064921132443 2.382432856888636e-05
0.4015961289 -0.1003156006 -0.0007566497018228861 -9.363295801516197e-06
0.4069176018 -0.1003156006 -0.0007651627245622569 -4.243921777610841e-05
0.4122390449 -0.1003156006 -0.0007599876731231724 -7.117531029534235e-05
0.4175605178 -0.1003156006 -0.0007355795693215201 -9.949900441346714e-05
0.4228819609 -0.1003156006 -0.000710731869961552 -0.0001293175808835116
0.4282034338 -0.1003156006 -0.0006859564066328709 -0.00015888521017722536
0.4335248768 -0.1003156006 -0.0006632031173213526 -0.00018428993293849772
0.4388463497 -0.1003156006 -0.0006351728962174682 -0.0002017182304248094
0.4441677928 -0.1003156006 -0.0005935919157606342 -0.00019840338990621714
0.4494892657 -0.1003156006 -0.0005526003528616388 -0.00019508714080689247
0.4548107088 -0.1003156006 -0.000515126114680617 -0.00019153866651006827
0.4601321816 -0.1003156006 -0.0004753833130996612 -0.00018806208570827825
0.4654536247 -0.1003156006 -0.00043989239122443967 -0.00017313531953394646
0.4707750976 -0.1003156006 -0.00041217143394962604 -0.00014200957771202691
0.4760965407 -0.1003156006 -0.0003864506555409276 -0.00011294745487784428
0.4814180136 -0.1003156006 -0.00036042292472253243 -8.388556167179248e-05
0.4867394567 -0.1003156006 -0.00033468561696786843 -5.488501566586243e-05
0.4920609295 -0.1003156006 -0.00032496454191689803 -2.1546348776504853e-05
0.4973823726 -0.1003156006 -0.00032081531526504737 1.2875240609882985e-05
0.5027038455 -0.1003156006 -0.0003170232964751483 4.718000966222967e-05
0.5080252886 -0.1003156006 -0.0003129329100771571 8.145798222986731e-05
0.5133467317 -0.1003156006 -0.00031273990673569627 0.00010951688023124431
0.5186682343 -0.1003156006 -0.0003187408581490606 0.00013326976915148208
0.5239896774 -0.1003156006 -0.0003257653787620755 0.00015732952848443945
0.5293111205 -0.1003156006 -0.0003316629948385958 0.00018101986036573483
0.5346325636 -0.1003156006 -0.00033588124786717964 0.00020180988163124157
0.5399540663 -0.1003156006 -0.00033780432084592446 0.00021746228012484807
0.5452755094 -0.1003156006 -0.0003405464196211501 0.00023299931290202678
0.5505969524 -0.1003156006 -0.00034262751168724794 0.0002489401685333198
0.5559183955 -0.1003156006 -0.000340692503479767 0.00026530387760639895
0.5612398982 -0.1003156006 -0.0003354768251882679 0.00027916329118579463
0.5665613413 -0.1003156006 -0.00033069106729784263 0.0002933542657519586
0.5718827844 -0.1003156006 -0.00032636472182843626 0.00031039014975810735
0.5772042274 -0.1003156006 -0.00031739222657874204 0.0003282320842658579
0.5825257301 -0.1003156006 -0.0003087930732379503 0.00034596205507233786
0.5878471732 -0.1003156006 -0.00029862741273498246 0.0003663418626028088
0.5931686163 -0.1003156006 -0.0002868457070261352 0.0003882451953392817
0.5984900594 -0.1003156006 -0.0002745395689995843 0.00040943277239954227
0.6038115621 -0.1003156006 -0.0002612225567632619 0.00043546665862512375
0.6091330051 -0.1003156006 -0.0002488387564822459 0.00046256293322940805
0.6144544482 -0.1003156006 -0.0002348037836710952 0.0004908505198020457
0.6197758913 -0.1003156006 -0.00021950131371328512 0.0005225029931407631
0.625097394 -0.1003156006 -0.0002044541426024511 0.0005541839520962419
0.6304188371 -0.1003156006 -0.00018873173660709258 0.0005878448792770243
0.6357402802 -0.1003156006 -0.00017199366605545434 0.0006240990841027841
0.6410617828 -0.1003156006 -0.00015443757733348026 0.0006600886554992189
0.6463832259 -0.1003156006 -0.00013510411226643225 0.0006983981493071695
0.651704669 -0.1003156006 -0.00011521273285934779 0.0007374363562741436
0.6570261121 -0.1003156006 -9.292868175351772e-05 0.0007820000844232165
0.6623476148 -0.1003156006 -7.026339733871805e-05 0.0008280494087120391
0.6676690578 -0.1003156006 -4.49586118954185e-05 0.0008779555944553833
0.6729905009 -0.1003156006 -1.6720540822326812e-05 0.000932374031975988
0.678311944 -0.1003156006 1.151657858619833e-05 0.0009918230839888595
0.6836334467 -0.1003156006 4.052705653542564e-05 0.0010558633412818662
0.6889548898 -0.1003156006 7.216591479957081e-05 0.0011283453771228794
0.6942763329 -0.1003156006 9.989014025365744e-05 0.001201490782719565
0.6995977759 -0.1003156006 0.00012931247145445926 0.00128065962197557
0.7049192786 -0.1003156006 0.0001584982457250439 0.0013716770280849026
0.7102407217 -0.1003156006 0.00018629866420903768 0.0014651081638338602
0.7155621648 -0.1003156006 0.0002125074357608652 0.0015708576223830316
0.7208836079 -0.1003156006 0.00023512048633816886 0.0016815024121284096
0.7262051105 -0.1003156006 0.0002521997640601137 0.0017973223958758673
0.7315265536 -0.1003156006 0.0002677834355212203 0.0019262233827115334
0.7368479967 -0.1003156006 0.00027037110157229657 0.002060859801129876
0.7421694398 -0.1003156006 0.00027039904453856045 0.0022048388437596778
0.7474909425 -0.1003156006 0.0002580067377270076 0.0023543768962543798
0.7528123856 -0.1003156006 0.00024091947560669918 0.0025110078852407756
0.7581338286 -0.1003156006 0.00020799644263171482 0.0026761721571414484
-0.3008363545 -0.09699654579 0.0011679089519931222 -0.0006918249193495928
-0.2955148816 -0.09699654579 0.001158413000214218 -0.0006466238636073305
-0.2901934385 -0.09699654579 0.0011564468540991287 -0.0005987778689181929
-0.2848719656 -0.09699654579 0.0011490680226765588 -0.0005581705941166831
-0.2795505226 -0.09699654579 0.0011397130375518831 -0.0005185914684431082
-0.2742290497 -0.09699654579 0.0011203809281854842 -0.00047510847461586795
-0.2689076066 -0.09699654579 0.0010883635293537984 -0.00042861773215000637
-0.2635861337 -0.09699654579 0.0010689660727259578 -0.00038899450153072275
-0.2582646906 -0.09699654579 0.0010507847591671375 -0.0003724810104010358
-0.2529432178 -0.09699654579 0.0010296456793334264 -0.00036303313460591254
-0.2476217598 -0.09699654579 0.0010014930396227003 -0.0003572225949944052
-0.2423003018 -0.09699654579 0.0009729092130442984 -0.00034856563616848563
-0.2369788438 -0.09699654579 0.0009163723172686733 -0.0003392678889854061
-0.2316573858 -0.09699654579 0.0008477172652236346 -0.00033730019022796035
-0.2263359278 -0.09699654579 0.0007687181016146 -0.0003367363693969857
-0.2210144699 -0.09699654579 0.0007497879442690881 -0.00034623160098687654
-0.2156930119 -0.09699654579 0.0007380707231421855 -0.0003671905419246236
-0.2103715539 -0.09699654579 0.0007236840393557905 -0.00039778432877542804
-0.2050500959 -0.09699654579 0.0007271282748346088 -0.0004109602695354303
-0.1997286379 -0.09699654579 0.0007374201156222981 -0.00042178907856652785
-0.19440718 -0.09699654579 0.0007506243792422321 -0.0004340736075198428
-0.189085722 -0.09699654579 0.0007641831832218232 -0.00042905005001885765
-0.183764264 -0.09699654579 0.0007694564963038855 -0.0004171011012037681
-0.178442806 -0.09699654579 0.000780866807541376 -0.000397905779092255
-0.173121348 -0.09699654579 0.0007798748135213452 -0.00037610170143880986
-0.16779989 -0.09699654579 0.0007753314360239567 -0.0003520036413217426
-0.1624784321 -0.09699654579 0.0007695651987461244 -0.00032784659809735004
-0.1571569741 -0.09699654579 0.000761015968740209 -0.0003082715535589437
-0.1518355161 -0.09699654579 0.000750793474356995 -0.0002954536595253021
-0.1465140581 -0.09699654579 0.0007380159350091019 -0.0002819936282293282
-0.1411926001 -0.09699654579 0.000724775978010563 -0.0002656197201864124
-0.1358711421 -0.09699654579 0.0007035395548238648 -0.00024821975733258547
-0.1305496842 -0.09699654579 0.0006830770897949064 -0.00023025442291829803
-0.1252282262 -0.09699654579 0.0006619632679218226 -0.00021198531116732046
-0.1199067682 -0.09699654579 0.0006367859014706176 -0.00019763514720081202
-0.1145853102 -0.09699654579 0.000612602639765645 -0.0001865382527791604
-0.1092638522 -0.09699654579 0.0005875843104213934 -0.0001756354879758364
-0.1039423943 -0.09699654579 0.0005622979425657982 -0.00016375220334488154
-0.09862093627 -0.09699654579 0.0005453430957018973 -0.00017059103725915696
-0.09329947084 -0.09699654579 0.0005281834718995377 -0.0001783179326281253
-0.08797801286 -0.09699654579 0.0005108967585493799 -0.0001868346938345067
-0.08265655488 -0.09699654579 0.0004939518194868327 -0.00019330891188175476
-0.0773350969 -0.09699654579 0.0004863193269519984 -0.0001952693378311222
-0.07201363891 -0.09699654579 0.00047940811370965277 -0.00019707743239527514
-0.06669218093 -0.09699654579 0.0004723251554027552 -0.00019887425542802046
-0.06137072667 -0.09699654579 0.00046540496345124304 -0.00020110683529581583
-0.05604926869 -0.09699654579 0.0004544792140576815 -0.00019612714078067722
-0.05072781071 -0.09699654579 0.0004433186985029737 -0.00019024262956393175
-0.045406349 -0.09699654579 0.0004319886705647277 -0.00018435486193761537
-0.04008489102 -0.09699654579 0.00042077595955248654 -0.0001782046217788357
-0.03476343304 -0.09699654579 0.0004077812297464669 -0.00017397024565400326
-0.02944197692 -0.09699654579 0.00039243136908393377 -0.0001768190065024779
-0.02412051894 -0.09699654579 0.00037698562181466517 -0.00017961713643065017
-0.01879905909 -0.09699654579 0.00036169945957326697 -0.00018245417455764983
-0.01347760204 -0.09699654579 0.0003460801287500009 -0.00018555007450074063
-0.00815614406 -0.09699654579 0.0003400980678812056 -0.0001902453214867212
-0.00283468538 -0.09699654579 0.00034265699272221833 -0.000196762192825665
0.002486772602 -0.09699654579 0.00034553039357309423 -0.00020373755293847764
0.007808230817 -0.09699654579 0.00034871316950298024 -0.0002109064061201888
0.0131296888 -0.09699654579 0.0003514445059874553 -0.00021762595123297899
0.01845114678 -0.09699654579 0.0003584223382237992 -0.00020641463243744625
0.02377260476 -0.09699654579 0.00036915737700786774 -0.00018246685324865174
0.02909406275 -0.09699654579 0.000381110212024176 -0.00015739357024166734
0.03441552073 -0.09699654579 0.00039359555864034476 -0.0001321761655186993
0.03973697871 -0.09699654579 0.00040427177367514483 -0.00010812922929669245
0.04505843669 -0.09699654579 0.0003960685251267265 -8.193271163167258e-05
0.05037989467 -0.09699654579 0.0003586410196732488 -5.25457424822548e-05
0.05570135266 -0.09699654579 0.00032093802692762283 -2.258967272048441e-05
0.06102281436 -0.09699654579 0.0002819181251511801 8.415931211042423e-06
0.06634426862 -0.09699654579 0.00024479976915615036 3.746011895644418e-05
0.0716657266 -0.09699654579 0.00020780911279391832 6.650758170997237e-05
0.07698718458 -0.09699654579 0.00017249135445155777 4.5860902229886394e-05
0.08230864257 -0.09699654579 0.00013760449892340085 2.2158901476470783e-05
0.08763010055 -0.09699654579 0.00010332588442973248 -5.870219491758153e-07
0.09295155853 -0.09699654579 6.924083024638178e-05 -2.3015188175506856e-05
0.09827301651 -0.09699654579 3.500402247383846e-05 -4.583288943628e-05
0.1035944745 -0.09699654579 1.633998908518537e-05 -6.398886874378601e-05
0.1089159325 -0.09699654579 2.875039662716196e-05 -7.293650693259676e-05
0.1142373979 -0.09699654579 3.9551708215227295e-05 -8.132788353350305e-05
0.1195588559 -0.09699654579 4.894913240539816e-05 -8.941445118501682e-05
0.1248803139 -0.09699654579 5.844632212823149e-05 -9.749616679336752e-05
0.1302017719 -0.09699654579 6.887226172166826e-05 -0.00010580492990623686
0.1355232298 -0.09699654579 7.084277840907165e-05 -9.129073666863838e-05
0.1408446878 -0.09699654579 6.585629794946678e-05 -6.472954843032794e-05
0.1461661458 -0.09699654579 6.048652877021568e-05 -3.803326797782896e-05
0.1514876038 -0.09699654579 5.499954094438405e-05 -1.1407843558630374e-05
0.1568090618 -0.09699654579 4.944945353594723e-05 1.5211102710425182e-05
0.1621305197 -0.09699654579 4.357797583150304e-05 4.025222764515991e-05
0.1674519777 -0.09699654579 1.0992319131581447e-05 4.623214481979589e-05
0.1727734357 -0.09699654579 -3.068083862940625e-05 4.517634063568019e-05
0.1780948937 -0.09699654579 -7.382211743541817e-05 4.437141377915358e-05
0.1834163517 -0.09699654579 -0.00011623351603863944 4.358420755362424e-05
0.1887378097 -0.09699654579 -0.00015636356703832175 4.24385032243539e-05
0.1940592676 -0.09699654579 -0.00019602784252839683 4.1298228346365474e-05
0.1993807256 -0.09699654579 -0.00021824898314630936 1.3315036003991704e-05
0.2047021836 -0.09699654579 -0.00023496834759104953 -2.2256737417997798e-05
0.2100236416 -0.09699654579 -0.00025041392049307245 -5.366513531631139e-05
0.2153450996 -0.09699654579 -0.0002658578974167781 -8.515975848427092e-05
0.2206665576 -0.09699654579 -0.00028115685409562687 -0.00011665484233873527
0.2259880155 -0.09699654579 -0.00029654287536480176 -0.00014809443169590966
0.2313094735 -0.09699654579 -0.0002725131068924485 -0.00016517090844755123
0.2366309315 -0.09699654579 -0.00023825954489444345 -0.00017884078802474188
0.2419523895 -0.09699654579 -0.00020374508966801454 -0.00019251698533531011
0.2472738475 -0.09699654579 -0.00016945986290314486 -0.000206191837803802
0.2525953054 -0.09699654579 -0.000138392936796965 -0.0002182110935380426
0.2579167783 -0.09699654579 -0.00010919523200621845 -0.00022955184643125236
0.2632382214 -0.09699654579 -8.648915928628348e-05 -0.0001909290912859195
0.2685596943 -0.09699654579 -6.51822721091636e-05 -0.00014118705821039576
0.2738811374 -0.09699654579 -4.585409791065884e-05 -9.430833652933851e-05
0.2792026103 -0.09699654579 -2.8429885045888294e-05 -4.9925289052306695e-05
0.2845240533 -0.09699654579 -1.100671699949772e-05 -5.525319518433205e-06
0.2898455262 -0.09699654579 7.95092247177115e-06 4.0811021592988885e-05
0.2951669693 -0.09699654579 -2.9399967807471443e-05 8.500171003595215e-05
0.3004884422 -0.09699654579 -7.218451250793973e-05 0.00012724110560608429
0.3058098853 -0.09699654579 -0.00011447063876206094 0.0001695791976520299
0.3111313581 -0.09699654579 -0.0001568241048080441 0.0002119024886267593
0.3164528012 -0.09699654579 -0.00019750495103085111 0.00025234194181180666
0.3217742741 -0.09699654579 -0.00023703036609225777 0.0002889275098026653
0.3270957172 -0.09699654579 -0.00029422576107385087 0.0002837694707180423
0.3324171901 -0.09699654579 -0.00035139449209171947 0.0002786100060347565
0.3377386332 -0.09699654579 -0.00040642129564317917 0.0002741168685930179
0.343060106 -0.09699654579 -0.00045994969358015763 0.0002699926874162669
0.3483815491 -0.09699654579 -0.000514381072578636 0.0002654952300016634
0.353703022 -0.09699654579 -0.0005629142653043581 0.00025426345991173734
0.3590244651 -0.09699654579 -0.0005975686848675692 0.00023039451925971555
0.364345938 -0.09699654579 -0.0006307813269974979 0.00020732507570121248
0.369667381 -0.09699654579 -0.000664110723338134 0.00018424265724773035
0.3749888539 -0.09699654579 -0.0006965972906293307 0.00016138627354846314
0.380310297 -0.09699654579 -0.0007277733698850988 0.0001395069260804303
0.3856317699 -0.09699654579 -0.0007427944593662659 0.00010548392174125528
0.390953213 -0.09699654579 -0.0007541338384967114 6.723170544459264e-05
0.3962746859 -0.09699654579 -0.000766125580634532 2.7638597311873088e-05
0.4015961289 -0.09699654579 -0.0007768719329344945 -9.405026329365365e-06
0.4069176018 -0.09699654579 -0.0007869230275700061 -4.468484757045468e-05
0.4122390449 -0.09699654579 -0.000780670666297859 -7.935974942770594e-05
0.4175605178 -0.09699654579 -0.0007536255536338674 -0.00011374572476650646
0.4228819609 -0.09699654579 -0.0007281390140664636 -0.00014436457536697974
0.4282034338 -0.09699654579 -0.0007036905866094612 -0.00017384399977231067
0.4335248768 -0.09699654579 -0.0006788361503151978 -0.00020350538686601113
0.4388463497 -0.09699654579 -0.0006456479716850899 -0.00022448063094050933
0.4441677928 -0.09699654579 -0.0006015641312152568 -0.00022103021180296359
0.4494892657 -0.09699654579 -0.0005573768172557786 -0.00021779308929841893
0.4548107088 -0.09699654579 -0.0005126885647678427 -0.0002146828304189364
0.4601321816 -0.09699654579 -0.00046904987547935224 -0.0002115724559391733
0.4654536247 -0.09699654579 -0.00043387645892483046 -0.00019600023909794538
0.4707750976 -0.09699654579 -0.00040463647923537767 -0.00016301466254931005
0.4760965407 -0.09699654579 -0.00037416744757162176 -0.0001276708775065937
0.4814180136 -0.09699654579 -0.0003449505203212475 -9.454603849729694e-05
0.4867394567 -0.09699654579 -0.0003175186256138122 -6.309397463216573e-05
0.4920609295 -0.09699654579 -0.000309722814959753 -2.7135765304508598e-05
0.4973823726 -0.09699654579 -0.00030742488238448134 1.000840453806395e-05
0.5027038455 -0.09699654579 -0.0003035387008751484 4.445729111315662e-05
0.5080252886 -0.09699654579 -0.0003007351685085735 8.061881896171694e-05
0.5133467317 -0.09699654579 -0.0003034285386361635 0.00011171055230629816
0.5186682343 -0.09699654579 -0.00031144706610350664 0.00013565888081647757
0.5239896774 -0.09699654579 -0.0003184186578777812 0.00015961153663808988
0.5293111205 -0.09699654579 -0.000325235243320373 0.00018325589435355495
0.5346325636 -0.09699654579 -0.0003313485377173621 0.00020350257719065442
0.5399540663 -0.09699654579 -0.0003332856057030713 0.00021834338169646604
0.5452755094 -0.09699654579 -0.00033584294297365114 0.00023388981187702571
0.5505969524 -0.09699654579 -0.00033760595410152965 0.0002486137957643173
0.5559183955 -0.09699654579 -0.0003338405767682962 0.00026233148945517645
0.5612398982 -0.09699654579 -0.00032984062397928824 0.00027607047060334346
0.5665613413 -0.09699654579 -0.000325650702543377 0.0002897968454984585
0.5718827844 -0.09699654579 -0.00031742851919614286 0.00030410712778163826
0.5772042274 -0.09699654579 -0.00030809833849892234 0.00032145202513003863
0.5825257301 -0.09699654579 -0.00029857626417341144 0.00033878563339939004
0.5878471732 -0.09699654579 -0.00028680324231876713 0.00035738468839963084
0.5931686163 -0.09699654579 -0.00027365749232793527 0.0003793346649425015
0.5984900594 -0.09699654579 -0.00025928111475295056 0.00040122179950627537
0.6038115621 -0.09699654579 -0.00024589593043914765 0.0004260735904140954
0.6091330051 -0.09699654579 -0.00022984787045988333 0.00045298693150746334
0.6144544482 -0.09699654579 -0.00021598096833207972 0.00048044785149630625
0.6197758913 -0.09699654579 -0.00019801409262292346 0.0005128842383040725
0.625097394 -0.09699654579 -0.00017929553091333334 0.0005459121925840372
0.6304188371 -0.09699654579 -0.00016390433726073137 0.0005771761374887773
0.6357402802 -0.09699654579 -0.00014664461096356557 0.0006108570527987313
0.6410617828 -0.09699654579 -0.00012813443568315624 0.0006481544512379642
0.6463832259 -0.09699654579 -0.00010851183324612162 0.000685186096143922
0.651704669 -0.09699654579 -8.502482450578375e-05 0.0007253609548595457
0.6570261121 -0.09699654579 -6.0965070556227056e-05 0.0007691105324989604
0.6623476148 -0.09699654579 -3.497499988147672e-05 0.0008159435768424761
0.6676690578 -0.09699654579 -7.920556331951519e-06 0.0008603379619902913
0.6729905009 -0.09699654579 2.310124189985966e-05 0.0009134886056474112
0.678311944 -0.09699654579 5.59487002288455e-05 0.0009710726123473623
0.6836334467 -0.09699654579 8.777370095794067e-05 0.0010328342924206051
0.6889548898 -0.09699654579 0.0001238948272464399 0.00110457211421222
0.6942763329 -0.09699654579 0.0001549050347489813 0.0011765631316206552
0.6995977759 -0.09699654579 0.00018910158611679402 0.0012570485966413264
0.7049192786 -0.09699654579 0.00022382275773202143 0.001347103123423937
0.7102407217 -0.09699654579 0.000257785634428201 0.0014435144235840278
0.7155621648 -0.09699654579 0.0002883686380113251 0.0015512313788568018
0.7208836079 -0.09699654579 0.00031570148174497176 0.0016642755894765054
0.7262051105 -0.09699654579 0.0003408402383535606 0.0017868969833898045
0.7315265536 -0.09699654579 0.0003541790844742628 0.0019239983148032895
0.7368479967 -0.09699654579 0.00036726141574473933 0.002060312007468353
0.7421694398 -0.09699654579 0.00036926520575005075 0.002207167493981503
0.7474909425 -0.09699654579 0.0003654203958168893 0.002362090498928583
0.7528123856 -0.09699654579 0.00034376761775713796 0.0025239793775862556
0.7581338286 -0.09699654579 0.00031867667763760884 0.0026976544101659917
-0.3008363545 -0.09367749095 0.0012049806322120165 -0.00070053199182643
-0.2955148816 -0.09367749095 0.0011998493312245734 -0.0006513034087694073
-0.2901934385 -0.09367749095 0.0011810587824059025 -0.0005991999059232477
-0.2848719656 -0.09367749095 0.0011841135528642924 -0.0005540836569665899
-0.2795505226 -0.09367749095 0.001173957475839607 -0.0005098937374103109
-0.2742290497 -0.09367749095 0.0011530608207199978 -0.00046878652158335795