VARIABLES = X,Y,phix,phiy
ZONE I=200,J=200,F=POINT 
-0.3008363545 -0.1003156006 0.00025816026015308794 -0.0009864931241374258
-0.2955148816 -0.1003156006 0.0002526581759037499 -0.00094477092159406
-0.2901934385 -0.1003156006 0.0002500053603435921 -0.0009003650516997286
-0.2848719656 -0.1003156006 0.00024850809777211786 -0.0008549848265994084
-0.2795505226 -0.1003156006 0.000248234583903605 -0.0008019564925879232
-0.2742290497 -0.1003156006 0.00024834598557457813 -0.0007403318000154998
-0.2689076066 -0.1003156006 0.00024740213557449697 -0.0006797552029407816
-0.2635861337 -0.1003156006 0.00022538894077114973 -0.0006383466591680044
-0.2582646906 -0.1003156006 0.00019607839208317382 -0.0005993185380781345
-0.2529432178 -0.1003156006 0.0001650720481481314 -0.0005586373186310293
-0.2476217598 -0.1003156006 0.00013238915988073914 -0.00052036731756944
-0.2423003018 -0.1003156006 9.071569802330433e-05 -0.00048559925329458704
-0.2369788438 -0.1003156006 4.280872784228298e-05 -0.0004450082288610035
-0.2316573858 -0.1003156006 -5.464975931810664e-06 -0.0003996524639713945
-0.2263359278 -0.1003156006 -5.207070954725262e-05 -0.00035803444534961636
-0.2210144699 -0.1003156006 -9.548017094089175e-05 -0.0003265138269466464
-0.2156930119 -0.1003156006 -0.0001409025321333236 -0.0002941973707782922
-0.2103715539 -0.1003156006 -0.00018965632344974424 -0.0002626874768307953
-0.2050500959 -0.1003156006 -0.00023969478399527296 -0.0002619865381531192
-0.1997286379 -0.1003156006 -0.0002907556852519499 -0.0002626870248043577
-0.19440718 -0.1003156006 -0.0003442747457036157 -0.000271990505633925
-0.189085722 -0.1003156006 -0.0003724552518559457 -0.00028107749566096395
-0.183764264 -0.1003156006 -0.00039723521689116086 -0.0002888848841654777
-0.178442806 -0.1003156006 -0.00042226946995250396 -0.00029451505269299344
-0.173121348 -0.1003156006 -0.0004463024105299151 -0.0002888069455859265
-0.16779989 -0.1003156006 -0.0004706328206117432 -0.00027965913579235514
-0.1624784321 -0.1003156006 -0.0004918524713321092 -0.00027355179786804797
-0.1571569741 -0.1003156006 -0.0005129369362426773 -0.00026407181824310153
-0.1518355161 -0.1003156006 -0.0005319248410428758 -0.0002534737378417587
-0.1465140581 -0.1003156006 -0.0005508184956679061 -0.00024384279770880532
-0.1411926001 -0.1003156006 -0.0005698128071551323 -0.00023391211068382728
-0.1358711421 -0.1003156006 -0.0005935166947363345 -0.00022031388936281265
-0.1305496842 -0.1003156006 -0.0006170973573610713 -0.00020669456476062436
-0.1252282262 -0.1003156006 -0.0006394619686003903 -0.0001924659665102608
-0.1199067682 -0.1003156006 -0.0006617864821203839 -0.00018065350876048613
-0.1145853102 -0.1003156006 -0.0006843184382061614 -0.00016887774295601033
-0.1092638522 -0.1003156006 -0.0007072550334944169 -0.0001570842909174057
-0.1039423943 -0.1003156006 -0.0007300493031429586 -0.0001461242161186952
-0.09862093627 -0.1003156006 -0.0007522987408456028 -0.00013650270392451784
-0.09329947084 -0.1003156006 -0.0007755702915140139 -0.00012699096754995696
-0.08797801286 -0.1003156006 -0.0007986768854822025 -0.00011747845481115825
-0.08265655488 -0.1003156006 -0.0008215774399685264 -0.00010825929501183539
-0.0773350969 -0.1003156006 -0.0008435533014552997 -0.00010255016894489675
-0.07201363891 -0.1003156006 -0.000865568959126334 -9.697264259550162e-05
-0.06669218093 -0.1003156006 -0.0008875828615577338 -9.138157216797419e-05
-0.06137072667 -0.1003156006 -0.0009098027369795598 -8.558876423927968e-05
-0.05604926869 -0.1003156006 -0.0009317679325209416 -7.864236722867063e-05
-0.05072781071 -0.1003156006 -0.0009535806753713079 -7.113359783375495e-05
-0.045406349 -0.1003156006 -0.0009753990498635279 -6.367113041916141e-05
-0.04008489102 -0.1003156006 -0.0009976067218405204 -5.6262934216406346e-05
-0.03476343304 -0.1003156006 -0.001018894417760293 -4.9293969244216724e-05
-0.02944197692 -0.1003156006 -0.0010394647496820434 -4.257447521468195e-05
-0.02412051894 -0.1003156006 -0.0010598602257334048 -3.595240971298905e-05
-0.01879905909 -0.1003156006 -0.0010802610940074569 -2.9384552731544533e-05
-0.01347760204 -0.1003156006 -0.001100809282261789 -2.275921804369982e-05
-0.00815614406 -0.1003156006 -0.0011197143287449804 -1.736371751786328e-05
-0.00283468538 -0.1003156006 -0.0011376939226455138 -1.2705937988851939e-05
0.002486772602 -0.1003156006 -0.0011551796587265725 -8.150636815883802e-06
0.007808230817 -0.1003156006 -0.0011729138016318497 -3.6178310073153858e-06
0.0131296888 -0.1003156006 -0.001190816529267962 1.0371489611932546e-06
0.01845114678 -0.1003156006 -0.0012094963241531965 6.6566625755606e-06
0.02377260476 -0.1003156006 -0.001228728001756968 1.3135815334457762e-05
0.02909406275 -0.1003156006 -0.0012476147750282345 1.9842053434337322e-05
0.03441552073 -0.1003156006 -0.0012665872689189004 2.6544803654946568e-05
0.03973697871 -0.1003156006 -0.0012858157857322731 3.3049956899111e-05
0.04505843669 -0.1003156006 -0.0013050603812416186 3.893001523532861e-05
0.05037989467 -0.1003156006 -0.0013268524925067326 4.497413828634436e-05
0.05570135266 -0.1003156006 -0.0013488533251720535 5.1218104276560514e-05
0.06102281436 -0.1003156006 -0.0013706274242251573 5.7654444333435606e-05
0.06634426862 -0.1003156006 -0.0013926864047016725 6.382461398966859e-05
0.0716657266 -0.1003156006 -0.0014144164581523981 6.98260885032023e-05
0.07698718458 -0.1003156006 -0.001445620854352696 7.047902895001707e-05
0.08230864257 -0.1003156006 -0.0014773892455654932 7.083051898944583e-05
0.08763010055 -0.1003156006 -0.0015099047175228615 7.122251972060351e-05
0.09295155853 -0.1003156006 -0.0015416798529936696 7.152501975059435e-05
0.09827301651 -0.1003156006 -0.001573301716669418 7.17851493517646e-05
0.1035944745 -0.1003156006 -0.0016014289884511233 6.691349193400247e-05
0.1089159325 -0.1003156006 -0.001624924129588894 5.1972665327741905e-05
0.1142373979 -0.1003156006 -0.0016482704837443155 3.7021778301283824e-05
0.1195588559 -0.1003156006 -0.0016713382244732129 2.3138498561115492e-05
0.1248803139 -0.1003156006 -0.0016944042171019634 8.765665140439898e-06
0.1302017719 -0.1003156006 -0.0017175533641657957 -5.70014790271193e-06
0.1355232298 -0.1003156006 -0.0017303942693720079 -1.7187534471387195e-05
0.1408446878 -0.1003156006 -0.001736121211622546 -2.6473866307481414e-05
0.1461661458 -0.1003156006 -0.0017428982695799316 -3.534328969792793e-05
0.1514876038 -0.1003156006 -0.001749752315978177 -4.421560222379061e-05
0.1568090618 -0.1003156006 -0.0017566413579886582 -5.308169474676406e-05
0.1621305197 -0.1003156006 -0.001763281889342103 -6.192980988864733e-05
0.1674519777 -0.1003156006 -0.0017738958259764775 -5.9116360472057776e-05
0.1727734357 -0.1003156006 -0.0017866209949630712 -5.126414065759667e-05
0.1780948937 -0.1003156006 -0.001799603858257946 -4.3403853711080837e-05
0.1834163517 -0.1003156006 -0.0018123332017212154 -3.554457992919892e-05
0.1887378097 -0.1003156006 -0.001825261293899158 -2.8215339624611288e-05
0.1940592676 -0.1003156006 -0.0018383287425416531 -2.2040503136554686e-05
0.1993807256 -0.1003156006 -0.001864710423881774 -2.7035276275010323e-05
0.2047021836 -0.1003156006 -0.0018955085473237503 -3.562693313667032e-05
0.2100236416 -0.1003156006 -0.0019260652666887282 -4.419865730664968e-05
0.2153450996 -0.1003156006 -0.0019550044132638274 -5.290608040825049e-05
0.2206665576 -0.1003156006 -0.001984480155593153 -6.155640885484136e-05
0.2259880155 -0.1003156006 -0.002014004357595718 -7.020915105660915e-05
0.2313094735 -0.1003156006 -0.0020317539435812555 -9.529727643065368e-05
0.2366309315 -0.1003156006 -0.002045961333453337 -0.00012367803292127148
0.2419523895 -0.1003156006 -0.0020595701072766014 -0.00015131674518543584
0.2472738475 -0.1003156006 -0.0020728552974465446 -0.00017881221369269904
0.2525953054 -0.1003156006 -0.0020846489682342347 -0.00020591198265482928
0.2579167783 -0.1003156006 -0.0020960888769082993 -0.00023215733212364614
0.2632382214 -0.1003156006 -0.0020886624297727476 -0.0002554109634478031
0.2685596943 -0.1003156006 -0.002076887226996835 -0.00027847907868565455
0.2738811374 -0.1003156006 -0.0020649448360079573 -0.00030190611116511504
0.2792026103 -0.1003156006 -0.0020529196347782446 -0.00032507010238046153
0.2845240533 -0.1003156006 -0.0020416636981905848 -0.00034681148193115317
0.2898455262 -0.1003156006 -0.0020303775139564393 -0.00036853735734179136
0.2951669693 -0.1003156006 -0.0020046606383269474 -0.000381385175062224
0.3004884422 -0.1003156006 -0.001977004293456391 -0.0003928817106197549
0.3058098853 -0.1003156006 -0.0019512275124055356 -0.0004029066332727771
0.3111313581 -0.1003156006 -0.0019253062935180225 -0.00041291593738791824
0.3164528012 -0.1003156006 -0.0018995598019511313 -0.00042293437148921697
0.3217742741 -0.1003156006 -0.0018730184889425836 -0.00043263637790124797
0.3270957172 -0.1003156006 -0.0018403231244225736 -0.000422015722729801
0.3324171901 -0.1003156006 -0.0018077313066586147 -0.0004114054349881638
0.3377386332 -0.1003156006 -0.0017751491904089878 -0.00040080703294818225
0.343060106 -0.1003156006 -0.0017424961948371734 -0.0003902154494221823
0.3483815491 -0.1003156006 -0.001712255818333792 -0.00037980984294362814
0.353703022 -0.1003156006 -0.0016853317796321837 -0.0003647081451564618
0.3590244651 -0.1003156006 -0.0016654290682838685 -0.00033898812138492563
0.364345938 -0.1003156006 -0.0016455686010326091 -0.00031327270815176083
0.369667381 -0.1003156006 -0.0016265517637076982 -0.0002888246093333854
0.3749888539 -0.1003156006 -0.0016073147743678946 -0.0002640623171866729
0.380310297 -0.1003156006 -0.0015879255958838453 -0.00023916189378675123
0.3856317699 -0.1003156006 -0.0015756063482681402 -0.00021404268915193564
0.390953213 -0.1003156006 -0.001565838231994632 -0.00018930921281981128
0.3962746859 -0.1003156006 -0.0015557843078500989 -0.00016444697537407025
0.4015961289 -0.1003156006 -0.0015457571111998378 -0.00013964505683845065
0.4069176018 -0.1003156006 -0.0015357212734887944 -0.00011484504190696297
0.4122390449 -0.1003156006 -0.0015264304847510766 -8.949447304988397e-05
0.4175605178 -0.1003156006 -0.0015181573583038738 -6.23135402537713e-05
0.4228819609 -0.1003156006 -0.0015099112965826927 -3.4755680016276384e-05
0.4282034338 -0.1003156006 -0.0015013880475118523 -7.284239664886953e-06
0.4335248768 -0.1003156006 -0.001493761969418998 1.951295081439634e-05
0.4388463497 -0.1003156006 -0.0014876914145125016 4.761535227435641e-05
0.4441677928 -0.1003156006 -0.0014865378665446214 7.889422105291376e-05
0.4494892657 -0.1003156006 -0.0014852628733206463 0.00010981820019133425
0.4548107088 -0.1003156006 -0.001483924541010835 0.00013958557538231963
0.4601321816 -0.1003156006 -0.0014829532235805455 0.00017012180221000913
0.4654536247 -0.1003156006 -0.001486382038631053 0.00019887562653309762
0.4707750976 -0.1003156006 -0.0014964910251809268 0.00022423293255939707
0.4760965407 -0.1003156006 -0.0015056523250676 0.00024896978637255413
0.4814180136 -0.1003156006 -0.0015149185237430592 0.00027369792111932295
0.4867394567 -0.1003156006 -0.0015240918546761788 0.0002984924720645826
0.4920609295 -0.1003156006 -0.0015352060115134908 0.0003141000580189801
0.4973823726 -0.1003156006 -0.0015467085972612421 0.0003273002798835338
0.5027038455 -0.1003156006 -0.001558818201060123 0.0003405176918597933
0.5080252886 -0.1003156006 -0.0015712013010287533 0.0003536928173589706
0.5133467317 -0.1003156006 -0.0015799111481926882 0.00036367978945879613
0.5186682343 -0.1003156006 -0.0015855157830555976 0.0003683647737275264
0.5239896774 -0.1003156006 -0.0015916703467632595 0.0003731655249754025
0.5293111205 -0.1003156006 -0.0015974525194740342 0.00037813837101638106
0.5346325636 -0.1003156006 -0.0016003911438992851 0.0003822747359600658
0.5399540663 -0.1003156006 -0.0015988144443595106 0.000382817585561605
0.5452755094 -0.1003156006 -0.0015972671458850513 0.00038301003240662007
0.5505969524 -0.1003156006 -0.0015959915785873052 0.0003841107613101323
0.5559183955 -0.1003156006 -0.0015895344631643566 0.0003847881720574213
0.5612398982 -0.1003156006 -0.001579761343112327 0.00038326483842861584
0.5665613413 -0.1003156006 -0.0015699943370875498 0.0003820310041643672
0.5718827844 -0.1003156006 -0.001558627806984385 0.0003829661836577325
0.5772042274 -0.1003156006 -0.0015404412500326656 0.0003828465532341747
0.5825257301 -0.1003156006 -0.0015226731629926168 0.00038262552373902523
0.5878471732 -0.1003156006 -0.0015022714993758843 0.0003848326877211097
0.5931686163 -0.1003156006 -0.0014783606320897323 0.00038798377300611284
0.5984900594 -0.1003156006 -0.0014550851815927017 0.00039024114235433936
0.6038115621 -0.1003156006 -0.00142744229989922 0.00039551450958648496
0.6091330051 -0.1003156006 -0.0014001325154858128 0.00040182743401941714
0.6144544482 -0.1003156006 -0.0013685321704320981 0.0004091141444811703
0.6197758913 -0.1003156006 -0.0013356326720142177 0.0004189813250949872
0.625097394 -0.1003156006 -0.0013011515170479337 0.00042972835376017604
0.6304188371 -0.1003156006 -0.0012624489397214057 0.0004425032084804658
0.6357402802 -0.1003156006 -0.0012236612079602816 0.0004572315371596426
0.6410617828 -0.1003156006 -0.001183317858747089 0.0004715803167975101
0.6463832259 -0.1003156006 -0.001141108840352971 0.0004882343996985809
0.651704669 -0.1003156006 -0.0010975518477191334 0.0005052604425708441
0.6570261121 -0.1003156006 -0.0010506283818057095 0.0005253493754252516
0.6623476148 -0.1003156006 -0.0010015146030078847 0.0005456320368461509
0.6676690578 -0.1003156006 -0.0009492472045009483 0.0005674294199763285
0.6729905009 -0.1003156006 -0.0008932418442259649 0.0005915240949613011
0.678311944 -0.1003156006 -0.0008345610586536533 0.0006179756738197728
0.6836334467 -0.1003156006 -0.0007726173561598594 0.0006457164368744587
0.6889548898 -0.1003156006 -0.0007073274096662833 0.0006749133519312627
0.6942763329 -0.1003156006 -0.0006367141151112801 0.0007075140099599152
0.6995977759 -0.1003156006 -0.0005624939952875689 0.0007425603561690913
0.7049192786 -0.1003156006 -0.0004844951348776891 0.0007811853591925151
0.7102407217 -0.1003156006 -0.0004026799850604741 0.0008217121806833012
0.7155621648 -0.1003156006 -0.00031426029913422316 0.0008683653553029608
0.7208836079 -0.1003156006 -0.00022151894673804563 0.0009196229625643828
0.7262051105 -0.1003156006 -0.0001249592436719193 0.0009742538427216026
0.7315265536 -0.1003156006 -2.139833651737908e-05 0.0010345508834997523
0.7368479967 -0.1003156006 8.792720669197038e-05 0.0011012740058713197
0.7421694398 -0.1003156006 0.0002039808010016615 0.001173710949956836
0.7474909425 -0.1003156006 0.00032009049350576813 0.001254276608291671
0.7528123856 -0.1003156006 0.00044871237752727375 0.0013410056201621377
0.7581338286 -0.1003156006 0.0005829063507030331 0.001434852257884583
-0.3008363545 -0.09699654579 0.0002773179440539886 -0.0009934739142047372
-0.2955148816 -0.09699654579 0.000277339289812657 -0.0009487603828242955
-0.2901934385 -0.09699654579 0.00027115975001195633 -0.0009008576059081844
-0.2848719656 -0.09699654579 0.00026966885795226303 -0.0008527733411760949
-0.2795505226 -0.09699654579 0.00027162716742510767 -0.0007969704879429342
-0.2742290497 -0.09699654579 0.0002719863930365004 -0.0007384452617113747
-0.2689076066 -0.09699654579 0.0002707544215687543 -0.0006760624510184791
-0.2635861337 -0.09699654579 0.00025705972324336577 -0.0006184271024966859
-0.2582646906 -0.09699654579 0.0002314054597625326 -0.0005778366575408344
-0.2529432178 -0.09699654579 0.00019934156375947095 -0.0005371033838867369
-0.2476217598 -0.09699654579 0.00016574387065565246 -0.000500816152263424
-0.2423003018 -0.09699654579 0.00012102803575413736 -0.00046449781387750876
-0.2369788438 -0.09699654579 7.05349632386558e-05 -0.00041830344513468765
-0.2316573858 -0.09699654579 2.3782049016188945e-05 -0.00037324216007625155
-0.2263359278 -0.09699654579 -2.5854240218445437e-05 -0.0003269888300533668
-0.2210144699 -0.09699654579 -7.309400976719325e-05 -0.0002942286703019065
-0.2156930119 -0.09699654579 -0.00012200319406607247 -0.00026403979108431235
-0.2103715539 -0.09699654579 -0.00017346799281144496 -0.00023359719560494036
-0.2050500959 -0.09699654579 -0.0002255612892594576 -0.00023052312505062087
-0.1997286379 -0.09699654579 -0.00027908851460211584 -0.0002402534251226764
-0.19440718 -0.09699654579 -0.00033534526523921505 -0.0002523512059385847
-0.189085722 -0.09699654579 -0.0003693177002005577 -0.00025937543371640193
-0.183764264 -0.09699654579 -0.00039310293899817874 -0.00026032928571897003
-0.178442806 -0.09699654579 -0.0004193285415630542 -0.0002575966166315883
-0.173121348 -0.09699654579 -0.00044234665908517395 -0.00025303162096110304
-0.16779989 -0.09699654579 -0.00046327046755951465 -0.000249681379545519
-0.1624784321 -0.09699654579 -0.0004857373904971857 -0.00025142440659201877
-0.1571569741 -0.09699654579 -0.000505668214375961 -0.0002492280941943502
-0.1518355161 -0.09699654579 -0.0005231233082582303 -0.0002412095179396157
-0.1465140581 -0.09699654579 -0.0005389239025502039 -0.0002323181015407119
-0.1411926001 -0.09699654579 -0.0005561019084995543 -0.00022244277730655148
-0.1358711421 -0.09699654579 -0.0005783389200891843 -0.00020811020284232685
-0.1305496842 -0.09699654579 -0.0006004988939526576 -0.00019360332045115043
-0.1252282262 -0.09699654579 -0.0006231299224301011 -0.00017914274267998752
-0.1199067682 -0.09699654579 -0.0006457333083773583 -0.000166426499860539
-0.1145853102 -0.09699654579 -0.0006699104781029027 -0.00015465996744452255
-0.1092638522 -0.09699654579 -0.0006934416615785678 -0.00014277080175488353
-0.1039423943 -0.09699654579 -0.000715946284850356 -0.00013157308832465763
-0.09862093627 -0.09699654579 -0.0007388608061732574 -0.00012232496031107167
-0.09329947084 -0.09699654579 -0.0007615508650056493 -0.00011319575360943128
-0.08797801286 -0.09699654579 -0.0007842716983037298 -0.00010422505388985429
-0.08265655488 -0.09699654579 -0.0008070700187825726 -9.546573597712206e-05
-0.0773350969 -0.09699654579 -0.0008292591589101798 -8.955693258239554e-05
-0.07201363891 -0.09699654579 -0.0008517706833153722 -8.374140808942745e-05
-0.06669218093 -0.09699654579 -0.0008742570425749862 -7.796171332757998e-05
-0.06137072667 -0.09699654579 -0.0008961539846834297 -7.198609827565928e-05
-0.05604926869 -0.09699654579 -0.0009179780746263028 -6.50041365862475e-05
-0.05072781071 -0.09699654579 -0.0009398840675923646 -5.7624048997581846e-05
-0.045406349 -0.09699654579 -0.0009616705884633336 -5.023350583463569e-05
-0.04008489102 -0.09699654579 -0.0009836197649569177 -4.289643406801462e-05
-0.03476343304 -0.09699654579 -0.0010046089628484415 -3.6122749426658904e-05
-0.02944197692 -0.09699654579 -0.0010244680568096483 -2.9718921051158454e-05
-0.02412051894 -0.09699654579 -0.0010442868129844453 -2.3282436978774344e-05
-0.01879905909 -0.09699654579 -0.001064241719160421 -1.684986806339376e-05
-0.01347760204 -0.09699654579 -0.001084023750746468 -1.0440223376230819e-05
-0.00815614406 -0.09699654579 -0.001102366723810009 -5.285802835672521e-06
-0.00283468538 -0.09699654579 -0.0011197561114276917 -8.770602575693027e-07
0.002486772602 -0.09699654579 -0.0011372676995874153 3.4666519185384974e-06
0.007808230817 -0.09699654579 -0.001154673491286879 7.855346829411138e-06
0.0131296888 -0.09699654579 -0.0011721502112851496 1.2238293193154758e-05
0.01845114678 -0.09699654579 -0.0011902630108527597 1.8008704773991175e-05
0.02377260476 -0.09699654579 -0.0012090868915913132 2.491950345152607e-05
0.02909406275 -0.09699654579 -0.001227816127969517 3.186180507506798e-05
0.03441552073 -0.09699654579 -0.0012466241038869915 3.8847797424972126e-05
0.03973697871 -0.09699654579 -0.0012655048222701018 4.5704913118922354e-05
0.04505843669 -0.09699654579 -0.0012841636486888507 5.218497465448005e-05
0.05037989467 -0.09699654579 -0.0013060613097757342 5.9110131275156423e-05
0.05570135266 -0.09699654579 -0.0013280636949286242 6.601214504810833e-05
0.06102281436 -0.09699654579 -0.0013500120206127366 7.327262551370546e-05
0.06634426862 -0.09699654579 -0.0013720764235046951 8.014601423056226e-05
0.0716657266 -0.09699654579 -0.0013939739953856619 8.702109647183774e-05
0.07698718458 -0.09699654579 -0.0014271509415631723 8.784503342911367e-05
0.08230864257 -0.09699654579 -0.001461135964331574 8.84323520688294e-05
0.08763010055 -0.09699654579 -0.001494833374000878 8.887311310835677e-05
0.09295155853 -0.09699654579 -0.0015284456627926142 8.940801933118873e-05
0.09827301651 -0.09699654579 -0.001561876215527309 8.995643601501582e-05
0.1035944745 -0.09699654579 -0.0015915966913427476 8.411358058700485e-05
0.1089159325 -0.09699654579 -0.001615792797530215 6.684581052183705e-05
0.1142373979 -0.09699654579 -0.001639558423584056 5.034951229285355e-05
0.1195588559 -0.09699654579 -0.001662789472600465 3.47165786154934e-05
0.1248803139 -0.09699654579 -0.0016861181525293885 1.908350600754362e-05
0.1302017719 -0.09699654579 -0.0017097441258765677 2.6205218093837736e-06
0.1355232298 -0.09699654579 -0.0017208159225110657 -9.76194964227462e-06
0.1408446878 -0.09699654579 -0.0017246546283417423 -1.9254799650221726e-05
0.1461661458 -0.09699654579 -0.0017288459557227604 -2.8650550693725347e-05
0.1514876038 -0.09699654579 -0.0017332584834278235 -3.823166330113199e-05
0.1568090618 -0.09699654579 -0.0017379222365713958 -4.7821680938300526e-05
0.1621305197 -0.09699654579 -0.0017431341389351279 -5.7276670185908646e-05
0.1674519777 -0.09699654579 -0.0017549043728388464 -5.240932743554646e-05
0.1727734357 -0.09699654579 -0.0017690138825324567 -4.2525689369733895e-05
0.1780948937 -0.09699654579 -0.0017832875818355276 -3.1676534533594335e-05
0.1834163517 -0.09699654579 -0.0017974533717406466 -2.1149671341610657e-05
0.1887378097 -0.09699654579 -0.0018116912443338399 -1.2522203240416002e-05
0.1940592676 -0.09699654579 -0.0018258704117092041 -3.895573972477745e-06
0.1993807256 -0.09699654579 -0.0018573858989928405 -9.227483645154043e-06
0.2047021836 -0.09699654579 -0.00189306456746662 -1.8288342741208527e-05
0.2100236416 -0.09699654579 -0.0019265931952977952 -2.725519600923101e-05
0.2153450996 -0.09699654579 -0.001959438401345506 -3.62616867404911e-05
0.2206665576 -0.09699654579 -0.001992376725506574 -4.526514667201367e-05
0.2259880155 -0.09699654579 -0.002025481104390272 -5.428531835380545e-05
0.2313094735 -0.09699654579 -0.002045105872499638 -8.136756264708854e-05
0.2366309315 -0.09699654579 -0.0020603946798290634 -0.00011208962210395115
0.2419523895 -0.09699654579 -0.002075784898785488 -0.00014280475091665564
0.2472738475 -0.09699654579 -0.002091240351657658 -0.00017352872637113264
0.2525953054 -0.09699654579 -0.0021059691429058604 -0.0002031516805856967
0.2579167783 -0.09699654579 -0.0021199873700213936 -0.00023166446983355663
0.2632382214 -0.09699654579 -0.0021131411532283304 -0.0002580140230620433
0.2685596943 -0.09699654579 -0.0021020283707594615 -0.00028380657291265265
0.2738811374 -0.09699654579 -0.002091476808284735 -0.00030892097506181196
0.2792026103 -0.09699654579 -0.002081060650010321 -0.00033265841138254673
0.2845240533 -0.09699654579 -0.0020704323662577 -0.0003569031832567843
0.2898455262 -0.09699654579 -0.0020598799252696605 -0.00038140900033081896
0.2951669693 -0.09699654579 -0.0020332399347392375 -0.0003958722025409841
0.3004884422 -0.09699654579 -0.002006119110119112 -0.000407810002888419
0.3058098853 -0.09699654579 -0.001977595055120919 -0.00041982965460660274
0.3111313581 -0.09699654579 -0.0019488393790605843 -0.00043184342552644823
0.3164528012 -0.09699654579 -0.0019209195952107467 -0.00044358700822735186
0.3217742741 -0.09699654579 -0.0018934626005309909 -0.00045278325153105716
0.3270957172 -0.09699654579 -0.0018589432106991778 -0.00044141632046448365
0.3324171901 -0.09699654579 -0.001824338372907925 -0.0004300447563878359
0.3377386332 -0.09699654579 -0.001790700802736231 -0.00041888329347408915
0.343060106 -0.09699654579 -0.001757688284899617 -0.0004078954942826995
0.3483815491 -0.09699654579 -0.0017248113858261362 -0.0003968665767986212
0.353703022 -0.09699654579 -0.0016964994636463593 -0.000379951931857276
0.3590244651 -0.09699654579 -0.0016766654837169458 -0.00035250103307007426
0.364345938 -0.09699654579 -0.0016576007635130988 -0.00032618616388888647
0.369667381 -0.09699654579 -0.0016382294721567217 -0.0002998719972520212
0.3749888539 -0.09699654579 -0.0016179683728159804 -0.0002734975191278493
0.380310297 -0.09699654579 -0.0015980679678184134 -0.0002478055360665939
0.3856317699 -0.09699654579 -0.001585964533718104 -0.00022269991596135234
0.390953213 -0.09699654579 -0.00157601263813484 -0.00019755655756037077
0.3962746859 -0.09699654579 -0.0015660917747546221 -0.00017215048284608883
0.4015961289 -0.09699654579 -0.00155614805011443 -0.00014710559965899073
0.4069176018 -0.09699654579 -0.0015460088912663623 -0.00012208941452467566
0.4122390449 -0.09699654579 -0.0015363083675395829 -9.569244812699499e-05
0.4175605178 -0.09699654579 -0.0015271271027598196 -6.742754790127444e-05
0.4228819609 -0.09699654579 -0.0015187278304597959 -3.9770006071511695e-05
0.4282034338 -0.09699654579 -0.0015105261424501317 -1.2094293002672417e-05
0.4335248768 -0.09699654579 -0.0015023881421200218 1.546485193787078e-05
0.4388463497 -0.09699654579 -0.0014957711829436794 4.522938131346556e-05
0.4441677928 -0.09699654579 -0.0014945700084098065 7.76191997617999e-05
0.4494892657 -0.09699654579 -0.0014933397482273065 0.00010991753713643753
0.4548107088 -0.09699654579 -0.0014920468891028668 0.00014215502097774042
0.4601321816 -0.09699654579 -0.0014905856408220144 0.00017404415611961443
0.4654536247 -0.09699654579 -0.0014943959666551246 0.0002026782317746964
0.4707750976 -0.09699654579 -0.0015051754104575615 0.00022856652705981087
0.4760965407 -0.09699654579 -0.001516884058807148 0.0002550224740207046
0.4814180136 -0.09699654579 -0.001527750106353073 0.00028094430282339883
0.4867394567 -0.09699654579 -0.0015378884160035353 0.0003063368503402972
0.4920609295 -0.09699654579 -0.0015502990310860886 0.0003215912873056831
0.4973823726 -0.09699654579 -0.0015635375831714185 0.00033419238701706025
0.5027038455 -0.09699654579 -0.0015755284552036912 0.0003467134812693761
0.5080252886 -0.09699654579 -0.0015881123651903485 0.00035948668811928503
0.5133467317 -0.09699654579 -0.0015975431151663915 0.0003679924233670063
0.5186682343 -0.09699654579 -0.0016032003584468008 0.00037148238398174
0.5239896774 -0.09699654579 -0.0016084519865838239 0.0003762666661821607
0.5293111205 -0.09699654579 -0.001613988212691498 0.00038029319608371694
0.5346325636 -0.09699654579 -0.0016159857225568944 0.00038187152499933886
0.5399540663 -0.09699654579 -0.001613696997793528 0.00038137384197020125
0.5452755094 -0.09699654579 -0.0016117211041460652 0.0003816071312584724
0.5505969524 -0.09699654579 -0.0016093858093470048 0.0003810175605073956
0.5559183955 -0.09699654579 -0.0016008565585401845 0.0003784102054453265
0.5612398982 -0.09699654579 -0.00159153803694979 0.0003768604501861981
0.5665613413 -0.09699654579 -0.0015819614081789002 0.00037518255724050195
0.5718827844 -0.09699654579 -0.0015678494330935422 0.00037208758803705124
0.5772042274 -0.09699654579 -0.0015500818955768148 0.0003710672210973927
0.5825257301 -0.09699654579 -0.0015323746302614667 0.00037002160130376915
0.5878471732 -0.09699654579 -0.0015105461380315057 0.00036902013998559404
0.5931686163 -0.09699654579 -0.0014858563459595432 0.00037117421545400766
0.5984900594 -0.09699654579 -0.0014596552220954055 0.00037279166306159215
0.6038115621 -0.09699654579 -0.0014311965747929283 0.00037706464535088453
0.6091330051 -0.09699654579 -0.0013985890416539106 0.000382542673681904
0.6144544482 -0.09699654579 -0.0013673076594592874 0.0003891501899988916
0.6197758913 -0.09699654579 -0.0013314013801220784 0.0003983856899132197
0.625097394 -0.09699654579 -0.0012946143129730712 0.0004084483258098315
0.6304188371 -0.09699654579 -0.001256638844204959 0.00041932041121563944
0.6357402802 -0.09699654579 -0.0012168469172387337 0.00043107093573419296
0.6410617828 -0.09699654579 -0.0011767488459664994 0.0004456061506600466
0.6463832259 -0.09699654579 -0.0011334198379662935 0.00046050368279385094
0.651704669 -0.09699654579 -0.0010873285774333605 0.0004769527297382253
0.6570261121 -0.09699654579 -0.0010387123227340157 0.0004953688251121976
0.6623476148 -0.09699654579 -0.0009877095056200465 0.0005151115387896678
0.6676690578 -0.09699654579 -0.0009345433451020846 0.0005336808773360133
0.6729905009 -0.09699654579 -0.0008782028650944936 0.0005558964304927256
0.678311944 -0.09699654579 -0.0008181030232753457 0.0005789726752567324
0.6836334467 -0.09699654579 -0.0007556017117226808 0.0006035283419143758
0.6889548898 -0.09699654579 -0.0006882975234177104 0.0006314737696220755
0.6942763329 -0.09699654579 -0.0006167623650214096 0.0006610872785012574
0.6995977759 -0.09699654579 -0.0005410643306233586 0.0006926826613493198
0.7049192786 -0.09699654579 -0.0004610589668953618 0.0007282585955662802
0.7102407217 -0.09699654579 -0.0003757799309195591 0.0007673795610651422
0.7155621648 -0.09699654579 -0.0002845791915493236 0.0008114416308078922
0.7208836079 -0.09699654579 -0.00018864430946782587 0.0008581568530316386
0.7262051105 -0.09699654579 -8.683649666565417e-05 0.0009103302072531581
0.7315265536 -0.09699654579 1.601949377744899e-05 0.0009687184340559436
0.7368479967 -0.09699654579 0.00012937553071286248 0.0010308217985022761
0.7421694398 -0.09699654579 0.00024750440673268264 0.00109982885260261
0.7474909425 -0.09699654579 0.0003720297693719329 0.0011745153654640216
0.7528123856 -0.09699654579 0.0005014808845796093 0.0012574651342217484
0.7581338286 -0.09699654579 0.0006411415149378906 0.0013491787938480838
-0.3008363545 -0.09367749095 0.0002972482923626599 -0.0010002714848463482
-0.2955148816 -0.09367749095 0.00029835272407405293 -0.0009569990971020281
-0.2901934385 -0.09367749095 0.0002969763918643259 -0.0009031024065976907
-0.2848719656 -0.09367749095 0.0002935430088122406 -0.000849395866090475
-0.2795505226 -0.09367749095 0.00029603587317953507 -0.0007944316189755121
-0.2742290497 -0.09367749095 0.00029543856551179063 -0.0007341442194328183
-0.2689076066 -0.09367749095 0.0002948417552821889 -0.000672746090456966