VARIABLES = X,Y,phix,phiy
ZONE I=200,J=200,F=POINT 
-0.3008363545 -0.1003156006 0.0005508601289353562 -0.0013487585305521584
-0.2955148816 -0.1003156006 0.0005534520015046647 -0.0013348848042969614
-0.2901934385 -0.1003156006 0.000567714081552471 -0.0013187511194369147
-0.2848719656 -0.1003156006 0.000583398867144854 -0.0013041263544207582
-0.2795505226 -0.1003156006 0.000601776489083368 -0.0012907496692473642
-0.2742290497 -0.1003156006 0.0006246760599682136 -0.0012761424955590101
-0.2689076066 -0.1003156006 0.0006417995095743717 -0.001265433847342921
-0.2635861337 -0.1003156006 0.000642476099022736 -0.0012444863646706272
-0.2582646906 -0.1003156006 0.0006549719812322483 -0.0012124003627383129
-0.2529432178 -0.1003156006 0.000670300678470189 -0.0011726829427323776
-0.2476217598 -0.1003156006 0.0006876832437278746 -0.0011322977079177
-0.2423003018 -0.1003156006 0.0006921216824081685 -0.0010919808454843383
-0.2369788438 -0.1003156006 0.0007028167858513354 -0.0010493885841409403
-0.2316573858 -0.1003156006 0.0007160944202963947 -0.0010057321582873768
-0.2263359278 -0.1003156006 0.0007216655971557767 -0.0009570979633026492
-0.2210144699 -0.1003156006 0.0007216837815777359 -0.0009011745645802116
-0.2156930119 -0.1003156006 0.0007256603679751654 -0.0008418320491927721
-0.2103715539 -0.1003156006 0.0007276245965247117 -0.0007794542332893504
-0.2050500959 -0.1003156006 0.0006978551027190894 -0.0007183483398755172
-0.1997286379 -0.1003156006 0.0006723560622535438 -0.0006478514832720882
-0.19440718 -0.1003156006 0.0006369040061259328 -0.0005718259630421488
-0.189085722 -0.1003156006 0.000590450093648817 -0.000511699555951629
-0.183764264 -0.1003156006 0.0005359766605098011 -0.00044865090928910124
-0.178442806 -0.1003156006 0.0004835349167291391 -0.0003902113429173145
-0.173121348 -0.1003156006 0.000428644408778118 -0.00035268407497422456
-0.16779989 -0.1003156006 0.00037761347688642743 -0.0003206753867083845
-0.1624784321 -0.1003156006 0.000319156266801726 -0.00028163661922639443
-0.1571569741 -0.1003156006 0.0002616937008131614 -0.00025561136917573695
-0.1518355161 -0.1003156006 0.00020618519682506594 -0.0002364336804935215
-0.1465140581 -0.1003156006 0.00015029232637267043 -0.00021717052329583604
-0.1411926001 -0.1003156006 9.84143676667177e-05 -0.00020320701653055048
-0.1358711421 -0.1003156006 5.215243322277446e-05 -0.00019656650588160488
-0.1305496842 -0.1003156006 6.057196818515764e-06 -0.00018992441340635462
-0.1252282262 -0.1003156006 -3.982485324444802e-05 -0.0001843758717436682
-0.1199067682 -0.1003156006 -8.287688530526193e-05 -0.0001780514213720629
-0.1145853102 -0.1003156006 -0.00012453292137907027 -0.0001708928487646567
-0.1092638522 -0.1003156006 -0.00016589379752740853 -0.00016433245826350884
-0.1039423943 -0.1003156006 -0.00020737119059833727 -0.0001583932379440079
-0.09862093627 -0.1003156006 -0.00024528622637211425 -0.0001520866522310328
-0.09329947084 -0.1003156006 -0.0002830291121414878 -0.00014563437030852422
-0.08797801286 -0.1003156006 -0.00032095779542136 -0.00013917881674730063
-0.08265655488 -0.1003156006 -0.0003592116223459808 -0.00013301101703730965
-0.0773350969 -0.1003156006 -0.00040094875940634953 -0.00012852699270074193
-0.07201363891 -0.1003156006 -0.0004427936022836927 -0.00012411543165862733
-0.06669218093 -0.1003156006 -0.00048477770977692667 -0.00011970092612254767
-0.06137072667 -0.1003156006 -0.0005270191659368232 -0.00011526725907675463
-0.05604926869 -0.1003156006 -0.0005645832194193117 -0.00011733806076789558
-0.05072781071 -0.1003156006 -0.0006010166593383362 -0.00012041206853602943
-0.045406349 -0.1003156006 -0.0006375496361505674 -0.00012332381690136055
-0.04008489102 -0.1003156006 -0.0006740808971730043 -0.00012665637392913226
-0.03476343304 -0.1003156006 -0.0007092223080871282 -0.0001309605438934693
-0.02944197692 -0.1003156006 -0.0007420228855510916 -0.0001362139052942024
-0.02412051894 -0.1003156006 -0.0007749328208055677 -0.00014151406018986668
-0.01879905909 -0.1003156006 -0.0008078845355030119 -0.00014679524193662058
-0.01347760204 -0.1003156006 -0.000840817383664962 -0.00015208684293416535
-0.00815614406 -0.1003156006 -0.0008748394056695883 -0.0001584045414836969
-0.00283468538 -0.1003156006 -0.0009101671104874425 -0.00016519320464999107
0.002486772602 -0.1003156006 -0.0009462671517447322 -0.00017189313696497525
0.007808230817 -0.1003156006 -0.0009825690840244501 -0.00017862967774281494
0.0131296888 -0.1003156006 -0.0010179481786798449 -0.00018538288100614116
0.01845114678 -0.1003156006 -0.001052788039304899 -0.00019645613382987117
0.02377260476 -0.1003156006 -0.0010874615445545656 -0.0002107125334346208
0.02909406275 -0.1003156006 -0.001122514455448257 -0.00022542363060127466
0.03441552073 -0.1003156006 -0.0011576177762392715 -0.00024013172215374558
0.03973697871 -0.1003156006 -0.0011924567124206105 -0.00025445439770020213
0.04505843669 -0.1003156006 -0.0012203890576421522 -0.0002694068593951499
0.05037989467 -0.1003156006 -0.001240256826197526 -0.0002843590206236895
0.05570135266 -0.1003156006 -0.001260393224244745 -0.00029971833322644864
0.06102281436 -0.1003156006 -0.001280340638467626 -0.00031497526407126475
0.06634426862 -0.1003156006 -0.0013004355746345628 -0.00032999975874880097
0.0716657266 -0.1003156006 -0.0013205880977849335 -0.00034486585863300267
0.07698718458 -0.1003156006 -0.0013467847459506213 -0.0003562285641706374
0.08230864257 -0.1003156006 -0.0013737017660061007 -0.000367101921776242
0.08763010055 -0.1003156006 -0.0014013580397625313 -0.0003778208015744043
0.09295155853 -0.1003156006 -0.0014284551052360865 -0.00038873249343381906
0.09827301651 -0.1003156006 -0.0014549390615468812 -0.0003997593126503081
0.1035944745 -0.1003156006 -0.0014790835540672898 -0.00041707275551122253
0.1089159325 -0.1003156006 -0.0015006602008919775 -0.00044677148961916514
0.1142373979 -0.1003156006 -0.0015220426191011732 -0.0004764688517953094
0.1195588559 -0.1003156006 -0.0015420908338303937 -0.0005044258652859901
0.1248803139 -0.1003156006 -0.0015627281356852822 -0.0005331063913911326
0.1302017719 -0.1003156006 -0.001583540706472879 -0.0005620480331240169
0.1355232298 -0.1003156006 -0.001583095251386982 -0.0005886631261074487
0.1408446878 -0.1003156006 -0.001568053975986721 -0.0006130003925993293
0.1461661458 -0.1003156006 -0.0015543620876020319 -0.0006358126293496497
0.1514876038 -0.1003156006 -0.001540646431455256 -0.0006586406620344738
0.1568090618 -0.1003156006 -0.001526999113772688 -0.0006814511832823239
0.1621305197 -0.1003156006 -0.0015133664167285637 -0.000704326459846004
0.1674519777 -0.1003156006 -0.0014984603072606814 -0.0006996515468241432
0.1727734357 -0.1003156006 -0.0014828041048113993 -0.0006832604867355569
0.1780948937 -0.1003156006 -0.0014670029294736242 -0.0006668656756308602
0.1834163517 -0.1003156006 -0.001451275014267437 -0.0006504837358732365
0.1887378097 -0.1003156006 -0.001436288203635908 -0.0006347466487378328
0.1940592676 -0.1003156006 -0.0014229226962869516 -0.0006204847123998219
0.1993807256 -0.1003156006 -0.0014357469336596365 -0.0005999757028283746
0.2047021836 -0.1003156006 -0.0014565372045127758 -0.0005772536407857696
0.2100236416 -0.1003156006 -0.0014775744010262397 -0.0005546250015735249
0.2153450996 -0.1003156006 -0.0014981486798507032 -0.0005343570932824406
0.2206665576 -0.1003156006 -0.0015185393602359651 -0.0005132232908995755
0.2259880155 -0.1003156006 -0.0015389971068773634 -0.0004920767421567969
0.2313094735 -0.1003156006 -0.0015766199390040306 -0.00048387549015175554
0.2366309315 -0.1003156006 -0.0016176278731512136 -0.0004802780987190594
0.2419523895 -0.1003156006 -0.0016578033859972168 -0.0004768363388730281
0.2472738475 -0.1003156006 -0.0016982493408767031 -0.0004731980661477477
0.2525953054 -0.1003156006 -0.0017385919098498286 -0.0004690056011819421
0.2579167783 -0.1003156006 -0.0017779482434026432 -0.0004656937206751802
0.2632382214 -0.1003156006 -0.0018164282164256904 -0.00048278211062895143
0.2685596943 -0.1003156006 -0.0018554910595762488 -0.0005052429669794329
0.2738811374 -0.1003156006 -0.0018955544944325854 -0.0005279606367429145
0.2792026103 -0.1003156006 -0.001934895651177342 -0.0005504401352853613
0.2845240533 -0.1003156006 -0.0019719811487794088 -0.0005722436494354248
0.2898455262 -0.1003156006 -0.002009089093116531 -0.0005940620679682634
0.2951669693 -0.1003156006 -0.0020281520657880903 -0.0006295973990405811
0.3004884422 -0.1003156006 -0.0020445435435895738 -0.0006669915639523663
0.3058098853 -0.1003156006 -0.002060407112481781 -0.0007022820929176351
0.3111313581 -0.1003156006 -0.0020763664569179597 -0.0007375906054164154
0.3164528012 -0.1003156006 -0.0020920326470853603 -0.0007728950074557281
0.3217742741 -0.1003156006 -0.0021076784290640963 -0.0008080280587298066
0.3270957172 -0.1003156006 -0.002105581514324804 -0.0008346969534836246
0.3324171901 -0.1003156006 -0.0021032361062482564 -0.0008613676623894442
0.3377386332 -0.1003156006 -0.0021008309070759223 -0.0008880298647164079
0.343060106 -0.1003156006 -0.0020985007495522914 -0.0009146802008918916
0.3483815491 -0.1003156006 -0.0020971906576470224 -0.0009404014679854694
0.353703022 -0.1003156006 -0.00209549984590885 -0.0009647525066991148
0.3590244651 -0.1003156006 -0.002092210644837389 -0.0009855010435008134
0.364345938 -0.1003156006 -0.0020890311220706772 -0.0010062649524536582
0.369667381 -0.1003156006 -0.0020863654905007886 -0.0010266689922018638
0.3749888539 -0.1003156006 -0.002083747873480034 -0.0010471490464547208
0.380310297 -0.1003156006 -0.002080720250646384 -0.0010676713937937483
0.3856317699 -0.1003156006 -0.002075149871921996 -0.0010860797633829209
0.390953213 -0.1003156006 -0.002069497736864021 -0.0011035304564104885
0.3962746859 -0.1003156006 -0.0020638284443719834 -0.0011207025641986486
0.4015961289 -0.1003156006 -0.002057524441555433 -0.0011379641995490379
0.4069176018 -0.1003156006 -0.0020511682230193113 -0.0011552322300678957
0.4122390449 -0.1003156006 -0.0020449383652735727 -0.0011707636005684145
0.4175605178 -0.1003156006 -0.0020377227879827538 -0.0011838648323091057
0.4228819609 -0.1003156006 -0.00203021840360557 -0.0011967661311897836
0.4282034338 -0.1003156006 -0.0020227993223709477 -0.0012097274938861063
0.4335248768 -0.1003156006 -0.002016094923180715 -0.0012227937406221042
0.4388463497 -0.1003156006 -0.0020091338769334275 -0.0012353286850559657
0.4441677928 -0.1003156006 -0.0020021850609303012 -0.0012467534183269358
0.4494892657 -0.1003156006 -0.0019950409468124305 -0.001258132131601862
0.4548107088 -0.1003156006 -0.0019881218996498358 -0.001269594162197776
0.4601321816 -0.1003156006 -0.0019814248897461343 -0.0012810553479989336
0.4654536247 -0.1003156006 -0.0019746463089411995 -0.0012929611712375103
0.4707750976 -0.1003156006 -0.0019674929720251933 -0.0013051374858615438
0.4760965407 -0.1003156006 -0.0019601496352069547 -0.001317093359677212
0.4814180136 -0.1003156006 -0.001952823795249827 -0.0013290664560459188
0.4867394567 -0.1003156006 -0.0019455912664295253 -0.001340967208457776
0.4920609295 -0.1003156006 -0.0019345902762164715 -0.0013537829895891307
0.4973823726 -0.1003156006 -0.001922034014980637 -0.0013667620310874203
0.5027038455 -0.1003156006 -0.0019099773094899406 -0.0013798035768366065
0.5080252886 -0.1003156006 -0.0018979144382772414 -0.0013927913039166262
0.5133467317 -0.1003156006 -0.0018838997560223965 -0.0014025118645776442
0.5186682343 -0.1003156006 -0.0018643993292394463 -0.0014101971306480277
0.5239896774 -0.1003156006 -0.001844851847614332 -0.0014179932417000749
0.5293111205 -0.1003156006 -0.0018258375818582468 -0.001425509722067584
0.5346325636 -0.1003156006 -0.0018070285056393427 -0.0014291106210601464
0.5399540663 -0.1003156006 -0.001785037711482779 -0.0014282410193918321
0.5452755094 -0.1003156006 -0.0017620004692205757 -0.001427386348267692
0.5505969524 -0.1003156006 -0.00174091196214206 -0.0014265040748448505
0.5559183955 -0.1003156006 -0.0017208271889755358 -0.001420234373298496
0.5612398982 -0.1003156006 -0.0016986160923435462 -0.0014113886772537303
0.5665613413 -0.1003156006 -0.001676426281540329 -0.0014027029424522322
0.5718827844 -0.1003156006 -0.0016571919238713548 -0.0013918080184976492
0.5772042274 -0.1003156006 -0.0016363637954962423 -0.001376548664816566
0.5825257301 -0.1003156006 -0.001615095639969084 -0.0013611336992860532
0.5878471732 -0.1003156006 -0.001596206252860268 -0.001343632119057324
0.5931686163 -0.1003156006 -0.001577400222962421 -0.0013222136964200421
0.5984900594 -0.1003156006 -0.0015584205191618834 -0.0013007600765303734
0.6038115621 -0.1003156006 -0.0015404651728506682 -0.0012745766814952447
0.6091330051 -0.1003156006 -0.00152362514841972 -0.0012476329785031798
0.6144544482 -0.1003156006 -0.0015056557009915587 -0.0012162879241554043
0.6197758913 -0.1003156006 -0.0014900909032859126 -0.0011824892397522596
0.625097394 -0.1003156006 -0.0014747476082256476 -0.0011454464556139962
0.6304188371 -0.1003156006 -0.0014599053878438443 -0.0011031842458182938
0.6357402802 -0.1003156006 -0.0014485494994868858 -0.0010597633764113587
0.6410617828 -0.1003156006 -0.0014389283501936969 -0.0010112828286418319
0.6463832259 -0.1003156006 -0.0014312818147787392 -0.0009598289045672661
0.651704669 -0.1003156006 -0.001424458882817209 -0.0009055132476409285
0.6570261121 -0.1003156006 -0.0014235155306989893 -0.0008476619440055026
0.6623476148 -0.1003156006 -0.0014240737698369519 -0.00078551519370261
0.6676690578 -0.1003156006 -0.0014277444489721467 -0.0007207791233539376
0.6729905009 -0.1003156006 -0.0014374569519779866 -0.0006507012223081789
0.678311944 -0.1003156006 -0.0014513951270512006 -0.000579321187806212
0.6836334467 -0.1003156006 -0.001468569729126642 -0.0005045244290814585
0.6889548898 -0.1003156006 -0.0014909376358331213 -0.000424751651278035
0.6942763329 -0.1003156006 -0.0015179904196602621 -0.0003419849917205638
0.6995977759 -0.1003156006 -0.0015496587299596459 -0.00025630401674287993
0.7049192786 -0.1003156006 -0.0015880300692580867 -0.0001678372955170793
0.7102407217 -0.1003156006 -0.001632270322453895 -7.388300286699012e-05
0.7155621648 -0.1003156006 -0.001684507020157246 2.2465822709902654e-05
0.7208836079 -0.1003156006 -0.001744474159499538 0.00012143936825785154
0.7262051105 -0.1003156006 -0.0018107857433306296 0.0002244087527830162
0.7315265536 -0.1003156006 -0.0018884360080486703 0.0003304166732457311
0.7368479967 -0.1003156006 -0.0019777738891126793 0.0004415227536559771
0.7421694398 -0.1003156006 -0.002077992494338303 0.0005557655917151284
0.7474909425 -0.1003156006 -0.002186058297243089 0.0006665100085470706
0.7528123856 -0.1003156006 -0.002312762326514925 0.0007823737854122149
0.7581338286 -0.1003156006 -0.0024533883380840863 0.0008996362770580412
-0.3008363545 -0.09699654579 0.0005412967754842217 -0.001350884107596438
-0.2955148816 -0.09699654579 0.0005469501285966765 -0.0013365857381185259
-0.2901934385 -0.09699654579 0.0005509002365844262 -0.0013211008885690597
-0.2848719656 -0.09699654579 0.0005670562090204004 -0.0013072117407200952
-0.2795505226 -0.09699654579 0.0005844904601059429 -0.0012935233634001658
-0.2742290497 -0.09699654579 0.000604481176811175 -0.0012815922620888825
-0.2689076066 -0.09699654579 0.0006203256593855216 -0.0012717720751878607
-0.2635861337 -0.09699654579 0.0006311085065790462 -0.0012554233470691652
-0.2582646906 -0.09699654579 0.0006430826575661344 -0.001225708510981539
-0.2529432178 -0.09699654579 0.0006612386855816982 -0.0011866905641397098
-0.2476217598 -0.09699654579 0.0006790251109823791 -0.0011434955042154825
-0.2423003018 -0.09699654579 0.0006909714178792416 -0.001099248003332508
-0.2369788438 -0.09699654579 0.0007061356791896297 -0.0010584428911171637
-0.2316573858 -0.09699654579 0.0007173973365403824 -0.0010117311640072209
-0.2263359278 -0.09699654579 0.0007352853525930993 -0.0009582903002972001
-0.2210144699 -0.09699654579 0.0007388695772415038 -0.0008996323527890571
-0.2156930119 -0.09699654579 0.0007412398704755808 -0.0008382691960938321
-0.2103715539 -0.09699654579 0.0007559289009525363 -0.000769338503572474
-0.2050500959 -0.09699654579 0.000735500557550863 -0.000697261159773112
-0.1997286379 -0.09699654579 0.0006995996674196129 -0.0006210561265259254
-0.19440718 -0.09699654579 0.0006634433771280572 -0.0005457404150305968
-0.189085722 -0.09699654579 0.0006126374533308675 -0.00048732007321201064
-0.183764264 -0.09699654579 0.000562158063705086 -0.0004336948134289165
-0.178442806 -0.09699654579 0.0005037266178830058 -0.000379684010055074
-0.173121348 -0.09699654579 0.00044673894833951257 -0.00033889703612784416
-0.16779989 -0.09699654579 0.00038544980740722756 -0.0002964924690998663
-0.1624784321 -0.09699654579 0.0003277175693328503 -0.00025063306185544643
-0.1571569741 -0.09699654579 0.0002665487157117371 -0.00022143183350898697
-0.1518355161 -0.09699654579 0.00021227722929164212 -0.00020231494697844647
-0.1465140581 -0.09699654579 0.00015650220690133982 -0.0001847765979845193
-0.1411926001 -0.09699654579 0.00010221705194322647 -0.00017080369644907405
-0.1358711421 -0.09699654579 5.632602344225297e-05 -0.0001655120752005686
-0.1305496842 -0.09699654579 9.740504636228766e-06 -0.00016080694728435888
-0.1252282262 -0.09699654579 -3.6069714381613235e-05 -0.0001564946681469303
-0.1199067682 -0.09699654579 -7.884738548388529e-05 -0.00015148928645321167
-0.1145853102 -0.09699654579 -0.0001204525118474531 -0.00014521877864095945
-0.1092638522 -0.09699654579 -0.00016167203610169026 -0.00013932827032591197
-0.1039423943 -0.09699654579 -0.00020245424886795245 -0.0001348925131731898
-0.09862093627 -0.09699654579 -0.00024038634869058542 -0.0001284251464993183
-0.09329947084 -0.09699654579 -0.00027809057290886406 -0.0001217900427092265
-0.08797801286 -0.09699654579 -0.0003154934695683407 -0.00011497932675258896
-0.08265655488 -0.09699654579 -0.0003537272165674952 -0.00010866351314585767
-0.0773350969 -0.09699654579 -0.0003959706528217558 -0.00010414714475466049
-0.07201363891 -0.09699654579 -0.00043879374890210053 -9.986960159601673e-05
-0.06669218093 -0.09699654579 -0.00048186392522118403 -9.561938116310183e-05
-0.06137072667 -0.09699654579 -0.0005262265853944523 -9.107816379082754e-05
-0.05604926869 -0.09699654579 -0.0005652868003903735 -9.346700446130484e-05
-0.05072781071 -0.09699654579 -0.0006029999657348542 -9.699430373041563e-05
-0.045406349 -0.09699654579 -0.0006407388643747331 -0.00010051813539199422
-0.04008489102 -0.09699654579 -0.0006782872615293219 -0.00010425051456658209
-0.03476343304 -0.09699654579 -0.0007147476861086758 -0.00010893687180395634
-0.02944197692 -0.09699654579 -0.0007486969493982507 -0.00011409706366799941
-0.02412051894 -0.09699654579 -0.0007828451074572994 -0.00011926847482858739
-0.01879905909 -0.09699654579 -0.0008169543238262366 -0.0001243959444456984
-0.01347760204 -0.09699654579 -0.000851180647555782 -0.00012949328384707074
-0.00815614406 -0.09699654579 -0.0008870985060843061 -0.0001356469712496535
-0.00283468538 -0.09699654579 -0.0009245231670165382 -0.00014230733150476504
0.002486772602 -0.09699654579 -0.0009625520856163769 -0.00014895411545516894
0.007808230817 -0.09699654579 -0.0010003709910662553 -0.0001555245831754225
0.0131296888 -0.09699654579 -0.0010381128838531553 -0.00016217501193396716
0.01845114678 -0.09699654579 -0.0010747412795359857 -0.00017399845132645464
0.02377260476 -0.09699654579 -0.0011105799669614183 -0.00018937039563645926
0.02909406275 -0.09699654579 -0.0011473017545698206 -0.00020525570041950118
0.03441552073 -0.09699654579 -0.0011839162180878467 -0.00022118145470996275
0.03973697871 -0.09699654579 -0.0012200372624269497 -0.0002366378697526384
0.04505843669 -0.09699654579 -0.0012484344560388522 -0.0002526516014388774
0.05037989467 -0.09699654579 -0.0012678090124712176 -0.0002682869265572671
0.05570135266 -0.09699654579 -0.0012874003262639982 -0.00028409499071261414
0.06102281436 -0.09699654579 -0.0013066062906585002 -0.00029995043354075126
0.06634426862 -0.09699654579 -0.001326050369695444 -0.0003154993095224364
0.0716657266 -0.09699654579 -0.001345574524642393 -0.0003310503975689273
0.07698718458 -0.09699654579 -0.001373682878535959 -0.0003416052456191483
0.08230864257 -0.09699654579 -0.001401991828215634 -0.00035166392748403494
0.08763010055 -0.09699654579 -0.001430177157249087 -0.0003620287766923534
0.09295155853 -0.09699654579 -0.0014583133650579786 -0.0003722860457579867
0.09827301651 -0.09699654579 -0.0014863142560092467 -0.00038252678611503847
0.1035944745 -0.09699654579 -0.0015119371556746282 -0.00040094329935408467
0.1089159325 -0.09699654579 -0.0015352427383003857 -0.000434109043220667
0.1142373979 -0.09699654579 -0.0015576485906147201 -0.00046621495269829623
0.1195588559 -0.09699654579 -0.001578949865204439 -0.0004972529637848453
0.1248803139 -0.09699654579 -0.0016003538526051654 -0.0005282886964600789
0.1302017719 -0.09699654579 -0.0016225932240749494 -0.0005603275335674681
0.1355232298 -0.09699654579 -0.0016190886761620563 -0.0005900743220434152
0.1408446878 -0.09699654579 -0.0016005329369987592 -0.0006162042061671605
0.1461661458 -0.09699654579 -0.0015826122983147934 -0.0006422069970432783
0.1514876038 -0.09699654579 -0.0015654539250795046 -0.0006682153064232631
0.1568090618 -0.09699654579 -0.0015486982015562735 -0.0006942323290015496
0.1621305197 -0.09699654579 -0.0015327362827519887 -0.0007192132278685493
0.1674519777 -0.09699654579 -0.0015145777809402795 -0.000711364958313649
0.1727734357 -0.09699654579 -0.0014954920447913412 -0.0006918061026141936
0.1780948937 -0.09699654579 -0.0014753964380315298 -0.0006711073108518324
0.1834163517 -0.09699654579 -0.0014558366253920741 -0.0006507636987546545
0.1887378097 -0.09699654579 -0.0014379375624974234 -0.0006329423369520824
0.1940592676 -0.09699654579 -0.001420031908499985 -0.0006151203967277475
0.1993807256 -0.09699654579 -0.0014332713797032585 -0.0005907193220300773
0.2047021836 -0.09699654579 -0.0014546074382357564 -0.0005643487696926516
0.2100236416 -0.09699654579 -0.0014752442405767125 -0.000540410839144832
0.2153450996 -0.09699654579 -0.001495159352155233 -0.000516711737937392
0.2206665576 -0.09699654579 -0.0015152839514818897 -0.0004930187552635779
0.2259880155 -0.09699654579 -0.0015355914614069972 -0.0004692450113222941
0.2313094735 -0.09699654579 -0.0015747041544428204 -0.0004609001203612553
0.2366309315 -0.09699654579 -0.0016188757660248912 -0.00045599318251286346
0.2419523895 -0.09699654579 -0.0016632290131628673 -0.00045109051066448115
0.2472738475 -0.09699654579 -0.0017074034251563428 -0.00044618473439222956
0.2525953054 -0.09699654579 -0.001750053908590122 -0.000442014160249216
0.2579167783 -0.09699654579 -0.0017913486102741475 -0.00043814780199298055
0.2632382214 -0.09699654579 -0.0018338777325391457 -0.00045789022005704254
0.2685596943 -0.09699654579 -0.001876813846666752 -0.0004826536791991304
0.2738811374 -0.09699654579 -0.0019182335925810824 -0.0005067037999142304
0.2792026103 -0.09699654579 -0.001957741938923886 -0.0005299380591991236
0.2845240533 -0.09699654579 -0.0019978037528886115 -0.0005533228957694322
0.2898455262 -0.09699654579 -0.0020385138882593606 -0.0005771074441178239
0.2951669693 -0.09699654579 -0.0020574351049486997 -0.0006157678306105159
0.3004884422 -0.09699654579 -0.0020737756795685416 -0.0006546132889312957
0.3058098853 -0.09699654579 -0.002090244608514128 -0.0006933111974129877
0.3111313581 -0.09699654579 -0.002106884063004158 -0.0007320439896148403
0.3164528012 -0.09699654579 -0.002123341433479529 -0.0007698359006586944
0.3217742741 -0.09699654579 -0.0021382003386089727 -0.0008056927610868833
0.3270957172 -0.09699654579 -0.0021354098514996265 -0.0008329988262869399
0.3324171901 -0.09699654579 -0.002132721578815084 -0.0008602796856453119
0.3377386332 -0.09699654579 -0.0021304831436309278 -0.0008872829588520162
0.343060106 -0.09699654579 -0.002128641158749673 -0.0009140686349024552
0.3483815491 -0.09699654579 -0.002126486798471305 -0.0009409669681352429
0.353703022 -0.09699654579 -0.0021239742444191427 -0.0009661237562406223
0.3590244651 -0.09699654579 -0.0021214753627348615 -0.0009874057465169175
0.364345938 -0.09699654579 -0.0021185953783822153 -0.001008449643344701
0.369667381 -0.09699654579 -0.002115713488533973 -0.0010295665237260452
0.3749888539 -0.09699654579 -0.002112563737765044 -0.0010505450996531752
0.380310297 -0.09699654579 -0.0021094517376640007 -0.0010713122252071867
0.3856317699 -0.09699654579 -0.002103709637481514 -0.0010895679097172992
0.390953213 -0.09699654579 -0.0020974986184717796 -0.001107332343194176
0.3962746859 -0.09699654579 -0.002090901617491682 -0.0011248908609835546
0.4015961289 -0.09699654579 -0.002084749602463092 -0.0011425737158679847
0.4069176018 -0.09699654579 -0.0020787592491326866 -0.001159860580795788
0.4122390449 -0.09699654579 -0.002071772596097616 -0.0011752892378354741
0.4175605178 -0.09699654579 -0.00206460798353116 -0.0011881357434392723
0.4228819609 -0.09699654579 -0.00205734859528043 -0.0012012162906054143
0.4282034338 -0.09699654579 -0.0020504684346554667 -0.0012140861291842465
0.4335248768 -0.09699654579 -0.0020433749954463644 -0.001227191140082526
0.4388463497 -0.09699654579 -0.002036134266786853 -0.001239474928286149
0.4441677928 -0.09699654579 -0.0020289207925430156 -0.0012507675384167245
0.4494892657 -0.09699654579 -0.0020217027511574537 -0.0012620145721659501
0.4548107088 -0.09699654579 -0.002014349360258723 -0.0012733751315141416
0.4601321816 -0.09699654579 -0.002007010469540223 -0.0012846922588631829
0.4654536247 -0.09699654579 -0.0020002034450966035 -0.0012966071309110307
0.4707750976 -0.09699654579 -0.0019931920728024 -0.0013091233261422876
0.4760965407 -0.09699654579 -0.0019863542275571967 -0.0013221423327498996
0.4814180136 -0.09699654579 -0.00197935368549784 -0.0013346629128227123
0.4867394567 -0.09699654579 -0.0019723385332508026 -0.0013470421230413285
0.4920609295 -0.09699654579 -0.001960470155796833 -0.001361036279447705
0.4973823726 -0.09699654579 -0.0019470535941105615 -0.0013753668809947748
0.5027038455 -0.09699654579 -0.0019344492893130032 -0.0013885977969074932
0.5080252886 -0.09699654579 -0.001921478325391788 -0.0014024587282383438
0.5133467317 -0.09699654579 -0.0019041341620777326 -0.0014141057577040268
0.5186682343 -0.09699654579 -0.0018823304939685507 -0.0014225739099575476
0.5239896774 -0.09699654579 -0.0018619336012199673 -0.0014302327361990857
0.5293111205 -0.09699654579 -0.001841409500888171 -0.0014382395670537
0.5346325636 -0.09699654579 -0.0018177733524495534 -0.0014428367299582471
0.5399540663 -0.09699654579 -0.0017939547006835981 -0.0014419111094199377
0.5452755094 -0.09699654579 -0.0017707748455291447 -0.0014409623410386832
0.5505969524 -0.09699654579 -0.001746773335667639 -0.0014400214601739188
0.5559183955 -0.09699654579 -0.0017225181681073322 -0.0014334772016140814
0.5612398982 -0.09699654579 -0.001699879541075858 -0.0014246896965489568
0.5665613413 -0.09699654579 -0.0016772529659909439 -0.001415941337146404
0.5718827844 -0.09699654579 -0.0016532050081765263 -0.0014046176735837284
0.5772042274 -0.09699654579 -0.0016319964262373706 -0.0013894587283640053
0.5825257301 -0.09699654579 -0.001610854331271046 -0.0013743133668750378
0.5878471732 -0.09699654579 -0.0015880201962002974 -0.0013564334114944362
0.5931686163 -0.09699654579 -0.0015679125832462073 -0.0013350033195952042
0.5984900594 -0.09699654579 -0.0015465912067129891 -0.0013130853893001026
0.6038115621 -0.09699654579 -0.0015264805271048565 -0.0012868360085493266
0.6091330051 -0.09699654579 -0.0015056543329855638 -0.0012580048673452669
0.6144544482 -0.09699654579 -0.0014867190135586439 -0.001227543207399013
0.6197758913 -0.09699654579 -0.0014682911349858324 -0.0011916040546656858
0.625097394 -0.09699654579 -0.0014510100013516024 -0.0011547448650264544
0.6304188371 -0.09699654579 -0.0014356532822536545 -0.0011117732937497688
0.6357402802 -0.09699654579 -0.001419207511281286 -0.0010665351763113218
0.6410617828 -0.09699654579 -0.001407961732446385 -0.0010187304162099981
0.6463832259 -0.09699654579 -0.0013967719013270475 -0.0009651529516274024
0.651704669 -0.09699654579 -0.0013881092127646015 -0.0009091475814783785
0.6570261121 -0.09699654579 -0.0013844908846101945 -0.000848187088449648
0.6623476148 -0.09699654579 -0.0013835719000274635 -0.0007848426977662745
0.6676690578 -0.09699654579 -0.0013858004788285352 -0.0007164417315386602
0.6729905009 -0.09699654579 -0.0013929844483693114 -0.000645080642576387
0.678311944 -0.09699654579 -0.00140288623794158 -0.0005700522966314692
0.6836334467 -0.09699654579 -0.001416933856620527 -0.0004923887153040711
0.6889548898 -0.09699654579 -0.00143737299371138 -0.0004112456568568372
0.6942763329 -0.09699654579 -0.0014616861532808299 -0.000324773023245931
0.6995977759 -0.09699654579 -0.0014910239054171427 -0.00023443814521475023
0.7049192786 -0.09699654579 -0.0015271974584689031 -0.00014225299242764825
0.7102407217 -0.09699654579 -0.0015699922642215694 -4.570848399212417e-05
0.7155621648 -0.09699654579 -0.0016211898850270754 5.560510399999224e-05
0.7208836079 -0.09699654579 -0.001678329879834953 0.00016186903863278532
0.7262051105 -0.09699654579 -0.0017447523949743727 0.0002710752644241429
0.7315265536 -0.09699654579 -0.0018189136307682147 0.0003808762984590454
0.7368479967 -0.09699654579 -0.0019039707818053271 0.0004988678008980145
0.7421694398 -0.09699654579 -0.002002060730957249 0.0006193226910790361
0.7474909425 -0.09699654579 -0.0021119385998541536 0.0007427502653038389
0.7528123856 -0.09699654579 -0.00223640738365191 0.0008670557397296352
0.7581338286 -0.09699654579 -0.0023779193463670735 0.0009908993211431298
-0.3008363545 -0.09367749095 0.0005323346223927339 -0.0013516599570882956
-0.2955148816 -0.09367749095 0.0005375097894339667 -0.0013383812885354386
-0.2901934385 -0.09367749095 0.0005407871869776744 -0.0013243375231447516
-0.2848719656 -0.09367749095 0.0005477970976745288 -0.0013097512799383766
-0.2795505226 -0.09367749095 0.0005655723292432147 -0.0012978377202115625
-0.2742290497 -0.09367749095 0.0005840079719004139 -0.001286209898779648
-0.2689076066 -0.09367749095 0.000601859819592563 -0.0012771606917489646